 BEGIN_INFO
   #
   # this is a Band-XCRYSDEN-Structure-File
   # aimed at Visualization of Fermi Surface
   #
   # Case:   cu_fs.bxsf
   #
 Fermi Energy:         19.0343
 END_INFO
 BEGIN_BLOCK_BANDGRID_3D
 band_energies
 BANDGRID_3D_BANDS
    2
   31   31   31
  0.000000  0.000000  0.000000
 -1.000000 -1.000000  1.000000
  1.000000  1.000000  1.000000
 -1.000000  1.000000 -1.000000
BAND:   9
   15.7304   15.7322   15.9223   16.3578   16.3709   16.4157
   16.4993   16.9594   17.1704   17.1926   17.7683   16.9942
   17.0732   17.1175   16.8980   16.6232   16.8980   17.1175
   17.0732   16.9942   17.7683   17.1926   17.1704   16.9594
   16.4993   16.4157   16.3709   16.3578   15.9223   15.7322
   15.7304   15.7322   15.7233   15.7571   15.9642   16.2889
   16.4037   16.5468   16.6520   16.8005   17.2072   17.4095
   17.2053   17.0053   17.0418   17.1438   16.8903   17.0115
   17.1404   17.0639   17.1329   17.3288   17.3301   17.1572
   16.8562   16.5621   16.3884   16.3187   16.1589   16.0513
   15.7258   15.7322   15.9223   15.7571   15.7771   15.9939
   16.2380   16.2923   16.3114   16.5481   16.6990   16.9702
   17.0173   17.3200   17.0393   17.0820   17.2369   17.2022
   16.8608   16.9523   16.9971   17.0603   17.5176   17.1908
   17.2427   16.8201   16.5063   16.4432   16.4209   16.3475
   15.9958   16.0513   15.9223   16.3578   15.9642   15.9939
   15.8346   16.2443   16.2183   16.2260   16.3031   16.9537
   16.8986   17.0351   17.0127   17.2699   17.1286   17.2603
   17.1923   17.0394   16.9909   16.8795   17.0588   17.4082
   17.2804   17.1024   16.9033   16.4561   16.3747   16.3704
   16.3970   16.3475   16.1589   16.3578   16.3709   16.2889
   16.2380   16.2443   15.9134   16.2004   16.1617   16.2390
   16.5958   16.5874   16.7698   17.0413   17.1274   17.3123
   17.2286   17.1764   17.0386   17.1690   16.8588   17.2439
   17.4314   16.9991   17.0533   16.8324   16.5377   16.3357
   16.3377   16.3704   16.4209   16.3187   16.3709   16.4157
   16.4037   16.2923   16.2183   16.2004   16.2106   16.3954
   16.5871   16.4778   16.6177   16.6668   17.0249   17.1267
   17.1838   17.4029   17.1753   17.2139   16.9648   17.2475
   17.1882   17.4387   17.0091   16.9818   16.6522   16.4566
   16.4860   16.3357   16.3747   16.4432   16.3884   16.4157
   16.4993   16.5468   16.3114   16.2260   16.1617   16.3954
   16.4344   16.7543   16.5436   16.6376   16.7076   16.9404
   17.4450   17.1835   17.2227   17.3481   17.2184   16.9954
   17.2492   17.2907   16.8022   16.9994   16.7995   16.6490
   15.9623   16.4566   16.5377   16.4561   16.5063   16.5621
   16.4993   16.9594   16.6520   16.5481   16.3031   16.2390
   16.5871   16.7543   16.6896   16.8440   16.9256   16.7243
   16.9197   17.0582   17.1348   17.2280   17.2434   17.3786
   17.2762   17.3426   17.1189   16.9550   17.0136   16.7115
   16.6727   16.6490   16.6522   16.8324   16.9033   16.8201
   16.8562   16.9594   17.1704   16.8005   16.6990   16.9537
   16.5958   16.4778   16.5436   16.8440   16.9253   17.1021
   16.9667   16.9614   17.0489   17.1474   17.2061   17.3185
   17.3079   17.5231   17.5406   17.2292   17.0661   16.8306
   16.6900   16.7115   16.7995   16.9818   17.0533   17.1024
   17.2427   17.1572   17.1704   17.1926   17.2072   16.9702
   16.8986   16.5874   16.6177   16.6376   16.9256   17.1021
   16.9451   16.8780   17.0025   17.0349   16.9612   17.1968
   17.2877   17.3001   17.4548   17.2558   17.2278   17.0815
   16.9466   16.8306   17.0136   16.9994   17.0091   16.9991
   17.2804   17.1908   17.3301   17.1926   17.7683   17.4095
   17.0173   17.0351   16.7698   16.6668   16.7076   16.7243
   16.9667   16.8780   16.5995   16.8979   17.0117   17.1298
   17.1920   17.2733   17.4597   17.4234   17.3511   17.2175
   16.8329   17.0815   17.0661   16.9550   16.8022   17.4387
   17.4314   17.4082   17.5176   17.3288   17.7683   16.9942
   17.2053   17.3200   17.0127   17.0413   17.0249   16.9404
   16.9197   16.9614   17.0025   16.8979   16.8994   16.9963
   17.1245   17.2135   17.3013   17.4875   17.4516   17.2919
   17.0901   17.2175   17.2278   17.2292   17.1189   17.2907
   17.1882   17.2439   17.0588   17.0603   17.1329   16.9942
   17.0732   17.0053   17.0393   17.2699   17.1274   17.1267
   17.4450   17.0582   17.0489   17.0349   17.0117   16.9963
   17.0090   17.1389   17.0870   17.5505   17.2240   17.4409
   17.5510   17.2919   17.3511   17.2558   17.5406   17.3426
   17.2492   17.2475   16.8588   16.8795   16.9971   17.0639
   17.0732   17.1175   17.0418   17.0820   17.1286   17.3123
   17.1838   17.1835   17.1348   17.1474   16.9612   17.1298
   17.1245   17.1389   17.2061   17.3059   17.5700   17.4822
   17.6796   17.4409   17.4516   17.4234   17.4548   17.5231
   17.2762   16.9954   16.9648   17.1690   16.9909   16.9523
   17.1404   17.1175   16.8980   17.1438   17.2369   17.2603
   17.2286   17.4029   17.2227   17.2280   17.2061   17.1968
   17.1920   17.2135   17.0870   17.3059   17.8599   17.8653
   17.8779   17.4822   17.2240   17.4875   17.4597   17.3001
   17.3079   17.3786   17.2184   17.2139   17.0386   17.0394
   16.8608   17.0115   16.8980   16.6232   16.8903   17.2022
   17.1923   17.1764   17.1753   17.3481   17.2434   17.3185
   17.2877   17.2733   17.3013   17.5505   17.5700   17.8653
   17.0401   17.8653   17.5700   17.5505   17.3013   17.2733
   17.2877   17.3185   17.2434   17.3481   17.1753   17.1764
   17.1923   17.2022   16.8903   16.6232   16.8980   17.0115
   16.8608   17.0394   17.0386   17.2139   17.2184   17.3786
   17.3079   17.3001   17.4597   17.4875   17.2240   17.4822
   17.8779   17.8653   17.8599   17.3059   17.0870   17.2135
   17.1920   17.1968   17.2061   17.2280   17.2227   17.4029
   17.2286   17.2603   17.2369   17.1438   16.8980   17.1175
   17.1404   16.9523   16.9909   17.1690   16.9648   16.9954
   17.2762   17.5231   17.4548   17.4234   17.4516   17.4409
   17.6796   17.4822   17.5700   17.3059   17.2061   17.1389
   17.1245   17.1298   16.9612   17.1474   17.1348   17.1835
   17.1838   17.3123   17.1286   17.0820   17.0418   17.1175
   17.0732   17.0639   16.9971   16.8795   16.8588   17.2475
   17.2492   17.3426   17.5406   17.2558   17.3511   17.2919
   17.5510   17.4409   17.2240   17.5505   17.0870   17.1389
   17.0090   16.9963   17.0117   17.0349   17.0489   17.0582
   17.4450   17.1267   17.1274   17.2699   17.0393   17.0053
   17.0732   16.9942   17.1329   17.0603   17.0588   17.2439
   17.1882   17.2907   17.1189   17.2292   17.2278   17.2175
   17.0901   17.2919   17.4516   17.4875   17.3013   17.2135
   17.1245   16.9963   16.8994   16.8979   17.0025   16.9614
   16.9197   16.9404   17.0249   17.0413   17.0127   17.3200
   17.2053   16.9942   17.7683   17.3288   17.5176   17.4082
   17.4314   17.4387   16.8022   16.9550   17.0661   17.0815
   16.8329   17.2175   17.3511   17.4234   17.4597   17.2733
   17.1920   17.1298   17.0117   16.8979   16.5995   16.8780
   16.9667   16.7243   16.7076   16.6668   16.7698   17.0351
   17.0173   17.4095   17.7683   17.1926   17.3301   17.1908
   17.2804   16.9991   17.0091   16.9994   17.0136   16.8306
   16.9466   17.0815   17.2278   17.2558   17.4548   17.3001
   17.2877   17.1968   16.9612   17.0349   17.0025   16.8780
   16.9451   17.1021   16.9256   16.6376   16.6177   16.5874
   16.8986   16.9702   17.2072   17.1926   17.1704   17.1572
   17.2427   17.1024   17.0533   16.9818   16.7995   16.7115
   16.6900   16.8306   17.0661   17.2292   17.5406   17.5231
   17.3079   17.3185   17.2061   17.1474   17.0489   16.9614
   16.9667   17.1021   16.9253   16.8440   16.5436   16.4778
   16.5958   16.9537   16.6990   16.8005   17.1704   16.9594
   16.8562   16.8201   16.9033   16.8324   16.6522   16.6490
   16.6727   16.7115   17.0136   16.9550   17.1189   17.3426
   17.2762   17.3786   17.2434   17.2280   17.1348   17.0582
   16.9197   16.7243   16.9256   16.8440   16.6896   16.7543
   16.5871   16.2390   16.3031   16.5481   16.6520   16.9594
   16.4993   16.5621   16.5063   16.4561   16.5377   16.4566
   15.9623   16.6490   16.7995   16.9994   16.8022   17.2907
   17.2492   16.9954   17.2184   17.3481   17.2227   17.1835
   17.4450   16.9404   16.7076   16.6376   16.5436   16.7543
   16.4344   16.3954   16.1617   16.2260   16.3114   16.5468
   16.4993   16.4157   16.3884   16.4432   16.3747   16.3357
   16.4860   16.4566   16.6522   16.9818   17.0091   17.4387
   17.1882   17.2475   16.9648   17.2139   17.1753   17.4029
   17.1838   17.1267   17.0249   16.6668   16.6177   16.4778
   16.5871   16.3954   16.2106   16.2004   16.2183   16.2923
   16.4037   16.4157   16.3709   16.3187   16.4209   16.3704
   16.3377   16.3357   16.5377   16.8324   17.0533   16.9991
   17.4314   17.2439   16.8588   17.1690   17.0386   17.1764
   17.2286   17.3123   17.1274   17.0413   16.7698   16.5874
   16.5958   16.2390   16.1617   16.2004   15.9134   16.2443
   16.2380   16.2889   16.3709   16.3578   16.1589   16.3475
   16.3970   16.3704   16.3747   16.4561   16.9033   17.1024
   17.2804   17.4082   17.0588   16.8795   16.9909   17.0394
   17.1923   17.2603   17.1286   17.2699   17.0127   17.0351
   16.8986   16.9537   16.3031   16.2260   16.2183   16.2443
   15.8346   15.9939   15.9642   16.3578   15.9223   16.0513
   15.9958   16.3475   16.4209   16.4432   16.5063   16.8201
   17.2427   17.1908   17.5176   17.0603   16.9971   16.9523
   16.8608   17.2022   17.2369   17.0820   17.0393   17.3200
   17.0173   16.9702   16.6990   16.5481   16.3114   16.2923
   16.2380   15.9939   15.7771   15.7571   15.9223   15.7322
   15.7258   16.0513   16.1589   16.3187   16.3884   16.5621
   16.8562   17.1572   17.3301   17.3288   17.1329   17.0639
   17.1404   17.0115   16.8903   17.1438   17.0418   17.0053
   17.2053   17.4095   17.2072   16.8005   16.6520   16.5468
   16.4037   16.2889   15.9642   15.7571   15.7233   15.7322
   15.7304   15.7322   15.9223   16.3578   16.3709   16.4157
   16.4993   16.9594   17.1704   17.1926   17.7683   16.9942
   17.0732   17.1175   16.8980   16.6232   16.8980   17.1175
   17.0732   16.9942   17.7683   17.1926   17.1704   16.9594
   16.4993   16.4157   16.3709   16.3578   15.9223   15.7322
   15.7304   15.7322   15.7233   15.7571   15.9642   16.2889
   16.4037   16.5468   16.6520   16.8005   17.2072   17.4095
   17.2053   17.0053   17.0418   17.1438   16.8903   17.0115
   17.1404   17.0639   17.1329   17.3288   17.3301   17.1572
   16.8562   16.5621   16.3884   16.3187   16.1589   16.0513
   15.7258   15.7322   15.7233   15.7322   15.7258   16.0513
   16.1589   16.3187   16.3884   16.5621   16.8562   17.1572
   17.3301   17.3288   17.1329   17.0639   17.1404   17.0115
   16.8903   17.1438   17.0418   17.0053   17.2053   17.4095
   17.2072   16.8005   16.6520   16.5468   16.4037   16.2889
   15.9642   15.7571   15.7233   15.7571   15.7258   15.7571
   15.9661   16.1488   16.2768   16.3618   16.5131   16.6496
   16.9416   17.3129   17.1745   17.2907   17.0148   17.0948
   17.1012   16.7628   17.1012   17.0948   17.0148   17.2907
   17.1745   17.3129   16.9416   16.6496   16.5131   16.3618
   16.2768   16.1488   15.9661   15.7571   15.9642   16.0513
   15.9661   15.9939   16.0669   16.2180   16.2512   16.3734
   16.5601   17.0118   16.9840   17.0221   17.3656   17.1180
   17.1047   17.0167   16.9615   17.0042   17.0423   17.0486
   17.2286   17.3811   17.0714   17.1052   16.7097   16.4751
   16.3124   16.3108   16.2587   16.1488   15.9642   16.2889
   16.1589   16.1488   16.0669   16.2443   16.2392   16.2197
   16.2302   16.4744   16.7456   16.9010   16.9399   17.1450
   17.2491   17.2152   17.1661   17.0172   17.0304   17.1121
   17.0644   17.1779   17.2944   17.0767   16.8717   16.6896
   16.5422   16.3509   16.3576   16.3108   16.2768   16.2889
   16.4037   16.3187   16.2768   16.2180   16.2392   16.2004
   16.1517   16.1594   16.4820   16.5881   16.6871   16.8252
   17.0098   17.1231   17.1601   17.2664   17.2101   16.9639
   17.0939   17.2321   17.0644   17.0324   16.9247   16.7100
   16.5537   16.5550   16.4102   16.3509   16.3124   16.3618
   16.4037   16.5468   16.3884   16.3618   16.2512   16.2197
   16.1517   16.3954   16.2800   16.4381   16.5526   16.6473
   16.7273   17.0190   17.3017   17.1869   17.1966   17.2885
   17.1492   17.0689   17.2526   17.2735   17.0730   16.8773
   16.7148   16.5423   16.2369   16.5550   16.5422   16.4751
   16.5131   16.5468   16.6520   16.5621   16.5131   16.3734
   16.2302   16.1594   16.2800   16.7543   16.6985   16.8536
   16.6642   16.7249   17.0278   17.1200   17.1900   17.2248
   17.3016   17.1925   17.1479   17.2018   17.2360   16.9635
   16.8402   16.6291   16.3744   16.5423   16.5537   16.6896
   16.7097   16.6496   16.6520   16.8005   16.8562   16.6496
   16.5601   16.4744   16.4820   16.4381   16.6985   16.8440
   16.9329   16.9726   16.7749   16.9398   17.0701   17.1858
   17.1829   17.3507   17.3630   17.5440   17.2368   17.0391
   16.9369   16.9041   16.6604   16.6291   16.7148   16.7100
   16.8717   17.1052   16.9416   16.8005   17.2072   17.1572
   16.9416   17.0118   16.7456   16.5881   16.5526   16.8536
   16.9329   17.1021   16.9427   16.9876   16.9739   17.0571
   17.0156   17.2160   17.3001   17.4008   17.3985   17.2045
   17.1006   16.9714   16.8508   16.9041   16.8402   16.8773
   16.9247   17.0767   17.0714   17.3129   17.2072   17.4095
   17.3301   17.3129   16.9840   16.9010   16.6871   16.6473
   16.6642   16.9726   16.9427   16.8780   16.9103   16.9553
   16.9357   17.1553   17.2018   17.2798   17.3432   17.4267
   17.2129   17.0706   16.8876   16.9714   16.9369   16.9635
   17.0730   17.0324   17.2944   17.3811   17.1745   17.4095
   17.2053   17.3288   17.1745   17.0221   16.9399   16.8252
   16.7273   16.7249   16.7749   16.9876   16.9103   16.8979
   16.9224   17.0310   17.1451   17.2169   17.3626   17.4583
   17.3514   17.3036   17.2402   17.0706   17.1006   17.0391
   17.2360   17.2735   17.0644   17.1779   17.2286   17.2907
   17.2053   17.0053   17.1329   17.2907   17.3656   17.1450
   17.0098   17.0190   17.0278   16.9398   16.9739   16.9553
   16.9224   16.9963   17.0202   17.1581   17.1131   17.2881
   17.5051   17.2189   17.3302   17.3036   17.2129   17.2045
   17.2368   17.2018   17.2526   17.2321   17.0644   17.0486
   17.0148   17.0053   17.0418   17.0639   17.0148   17.1180
   17.2491   17.1231   17.3017   17.1200   17.0701   17.0571
   16.9357   17.0310   17.0202   17.1389   17.2117   17.4427
   17.4863   17.6732   17.4918   17.2189   17.3514   17.4267
   17.3985   17.5440   17.1479   17.0689   17.0939   17.1121
   17.0423   17.0948   17.0418   17.1438   17.1404   17.0948
   17.1047   17.2152   17.1601   17.1869   17.1900   17.1858
   17.0156   17.1553   17.1451   17.1581   17.2117   17.3059
   17.5595   17.8473   17.5272   17.6732   17.5051   17.4583
   17.3432   17.4008   17.3630   17.1925   17.1492   16.9639
   17.0304   17.0042   17.1012   17.1438   16.8903   17.0115
   17.1012   17.0167   17.1661   17.2664   17.1966   17.2248
   17.1829   17.2160   17.2018   17.2169   17.1131   17.4427
   17.5595   17.8653   17.7079   17.8473   17.4863   17.2881
   17.3626   17.2798   17.3001   17.3507   17.3016   17.2885
   17.2101   17.0172   16.9615   16.7628   16.8903   17.0115
   16.8903   16.7628   16.9615   17.0172   17.2101   17.2885
   17.3016   17.3507   17.3001   17.2798   17.3626   17.2881
   17.4863   17.8473   17.7079   17.8653   17.5595   17.4427
   17.1131   17.2169   17.2018   17.2160   17.1829   17.2248
   17.1966   17.2664   17.1661   17.0167   17.1012   17.0115
   17.1404   17.1438   17.1012   17.0042   17.0304   16.9639
   17.1492   17.1925   17.3630   17.4008   17.3432   17.4583
   17.5051   17.6732   17.5272   17.8473   17.5595   17.3059
   17.2117   17.1581   17.1451   17.1553   17.0156   17.1858
   17.1900   17.1869   17.1601   17.2152   17.1047   17.0948
   17.1404   17.0639   17.0418   17.0948   17.0423   17.1121
   17.0939   17.0689   17.1479   17.5440   17.3985   17.4267
   17.3514   17.2189   17.4918   17.6732   17.4863   17.4427
   17.2117   17.1389   17.0202   17.0310   16.9357   17.0571
   17.0701   17.1200   17.3017   17.1231   17.2491   17.1180
   17.0148   17.0639   17.1329   17.0053   17.0148   17.0486
   17.0644   17.2321   17.2526   17.2018   17.2368   17.2045
   17.2129   17.3036   17.3302   17.2189   17.5051   17.2881
   17.1131   17.1581   17.0202   16.9963   16.9224   16.9553
   16.9739   16.9398   17.0278   17.0190   17.0098   17.1450
   17.3656   17.2907   17.1329   17.3288   17.2053   17.2907
   17.2286   17.1779   17.0644   17.2735   17.2360   17.0391
   17.1006   17.0706   17.2402   17.3036   17.3514   17.4583
   17.3626   17.2169   17.1451   17.0310   16.9224   16.8979
   16.9103   16.9876   16.7749   16.7249   16.7273   16.8252
   16.9399   17.0221   17.1745   17.3288   17.3301   17.4095
   17.1745   17.3811   17.2944   17.0324   17.0730   16.9635
   16.9369   16.9714   16.8876   17.0706   17.2129   17.4267
   17.3432   17.2798   17.2018   17.1553   16.9357   16.9553
   16.9103   16.8780   16.9427   16.9726   16.6642   16.6473
   16.6871   16.9010   16.9840   17.3129   17.3301   17.1572
   17.2072   17.3129   17.0714   17.0767   16.9247   16.8773
   16.8402   16.9041   16.8508   16.9714   17.1006   17.2045
   17.3985   17.4008   17.3001   17.2160   17.0156   17.0571
   16.9739   16.9876   16.9427   17.1021   16.9329   16.8536
   16.5526   16.5881   16.7456   17.0118   16.9416   17.1572
   16.8562   16.8005   16.9416   17.1052   16.8717   16.7100
   16.7148   16.6291   16.6604   16.9041   16.9369   17.0391
   17.2368   17.5440   17.3630   17.3507   17.1829   17.1858
   17.0701   16.9398   16.7749   16.9726   16.9329   16.8440
   16.6985   16.4381   16.4820   16.4744   16.5601   16.6496
   16.8562   16.5621   16.6520   16.6496   16.7097   16.6896
   16.5537   16.5423   16.3744   16.6291   16.8402   16.9635
   17.2360   17.2018   17.1479   17.1925   17.3016   17.2248
   17.1900   17.1200   17.0278   16.7249   16.6642   16.8536
   16.6985   16.7543   16.2800   16.1594   16.2302   16.3734
   16.5131   16.5621   16.3884   16.5468   16.5131   16.4751
   16.5422   16.5550   16.2369   16.5423   16.7148   16.8773
   17.0730   17.2735   17.2526   17.0689   17.1492   17.2885
   17.1966   17.1869   17.3017   17.0190   16.7273   16.6473
   16.5526   16.4381   16.2800   16.3954   16.1517   16.2197
   16.2512   16.3618   16.3884   16.3187   16.4037   16.3618
   16.3124   16.3509   16.4102   16.5550   16.5537   16.7100
   16.9247   17.0324   17.0644   17.2321   17.0939   16.9639
   17.2101   17.2664   17.1601   17.1231   17.0098   16.8252
   16.6871   16.5881   16.4820   16.1594   16.1517   16.2004
   16.2392   16.2180   16.2768   16.3187   16.1589   16.2889
   16.2768   16.3108   16.3576   16.3509   16.5422   16.6896
   16.8717   17.0767   17.2944   17.1779   17.0644   17.1121
   17.0304   17.0172   17.1661   17.2152   17.2491   17.1450
   16.9399   16.9010   16.7456   16.4744   16.2302   16.2197
   16.2392   16.2443   16.0669   16.1488   16.1589   16.0513
   15.9642   16.1488   16.2587   16.3108   16.3124   16.4751
   16.7097   17.1052   17.0714   17.3811   17.2286   17.0486
   17.0423   17.0042   16.9615   17.0167   17.1047   17.1180
   17.3656   17.0221   16.9840   17.0118   16.5601   16.3734
   16.2512   16.2180   16.0669   15.9939   15.9661   16.0513
   15.7258   15.7571   15.9661   16.1488   16.2768   16.3618
   16.5131   16.6496   16.9416   17.3129   17.1745   17.2907
   17.0148   17.0948   17.1012   16.7628   17.1012   17.0948
   17.0148   17.2907   17.1745   17.3129   16.9416   16.6496
   16.5131   16.3618   16.2768   16.1488   15.9661   15.7571
   15.7258   15.7322   15.7233   15.7571   15.9642   16.2889
   16.4037   16.5468   16.6520   16.8005   17.2072   17.4095
   17.2053   17.0053   17.0418   17.1438   16.8903   17.0115
   17.1404   17.0639   17.1329   17.3288   17.3301   17.1572
   16.8562   16.5621   16.3884   16.3187   16.1589   16.0513
   15.7258   15.7322   15.9223   15.7571   15.7771   15.9939
   16.2380   16.2923   16.3114   16.5481   16.6990   16.9702
   17.0173   17.3200   17.0393   17.0820   17.2369   17.2022
   16.8608   16.9523   16.9971   17.0603   17.5176   17.1908
   17.2427   16.8201   16.5063   16.4432   16.4209   16.3475
   15.9958   16.0513   15.9223   15.7571   15.7258   15.7571
   15.9661   16.1488   16.2768   16.3618   16.5131   16.6496
   16.9416   17.3129   17.1745   17.2907   17.0148   17.0948
   17.1012   16.7628   17.1012   17.0948   17.0148   17.2907
   17.1745   17.3129   16.9416   16.6496   16.5131   16.3618
   16.2768   16.1488   15.9661   15.7571   15.7771   15.7571
   15.9223   16.0513   15.9958   16.3475   16.4209   16.4432
   16.5063   16.8201   17.2427   17.1908   17.5176   17.0603
   16.9971   16.9523   16.8608   17.2022   17.2369   17.0820
   17.0393   17.3200   17.0173   16.9702   16.6990   16.5481
   16.3114   16.2923   16.2380   15.9939   15.7771   15.9939
   15.9661   16.0513   15.9642   16.1488   16.2587   16.3108
   16.3124   16.4751   16.7097   17.1052   17.0714   17.3811
   17.2286   17.0486   17.0423   17.0042   16.9615   17.0167
   17.1047   17.1180   17.3656   17.0221   16.9840   17.0118
   16.5601   16.3734   16.2512   16.2180   16.0669   15.9939
   16.2380   16.1488   15.9958   16.1488   16.2380   16.2180
   16.1831   16.2175   16.3618   16.5841   16.8983   16.9346
   16.9425   17.1764   17.1914   17.0978   16.9235   17.1513
   16.9235   17.0978   17.1914   17.1764   16.9425   16.9346
   16.8983   16.5841   16.3618   16.2175   16.1831   16.2180
   16.2380   16.2923   16.2768   16.3475   16.2587   16.2180
   16.2183   16.2197   16.1750   16.3150   16.5780   16.7302
   16.8170   17.0096   17.1411   17.0466   17.1828   17.0714
   17.0039   17.0722   17.1433   17.2518   17.0873   16.9555
   16.9911   16.7205   16.6333   16.5065   16.3794   16.2175
   16.2512   16.2923   16.3114   16.3618   16.4209   16.3108
   16.1831   16.2197   16.1617   16.1594   16.2704   16.3946
   16.5448   16.8390   16.9659   16.9650   17.3526   17.1207
   17.2471   17.1321   17.1046   17.2049   17.2738   17.0217
   16.9327   16.8933   16.7406   16.5703   16.2709   16.5065
   16.3618   16.3734   16.3114   16.5481   16.5131   16.4432
   16.3124   16.2175   16.1750   16.1594   16.5871   16.4381
   16.7315   16.7252   16.7487   16.9674   16.9564   17.1155
   17.2553   17.1964   17.2109   17.3513   17.1233   17.2509
   17.2307   16.9575   16.7437   16.6582   16.5290   16.5703
   16.6333   16.5841   16.5601   16.5481   16.6990   16.6496
   16.5063   16.4751   16.3618   16.3150   16.2704   16.4381
   16.5436   16.8536   16.8266   16.9688   16.7732   16.9086
   17.1054   17.1816   17.2043   17.2585   17.3192   17.2530
   17.2800   17.2771   16.7826   16.7794   16.5885   16.6582
   16.7406   16.7205   16.8983   17.0118   16.6990   16.9702
   16.9416   16.8201   16.7097   16.5841   16.5780   16.3946
   16.7315   16.8536   16.9256   16.9726   16.6857   16.6979
   16.8788   17.0227   16.9842   17.1947   17.2889   17.2012
   17.2957   17.2718   17.2366   16.8037   16.6958   16.7794
   16.7437   16.8933   16.9911   16.9346   16.9840   16.9702
   17.0173   17.3129   17.2427   17.1052   16.8983   16.7302
   16.5448   16.7252   16.8266   16.9726   16.9667   16.9876
   16.8919   16.9652   17.0299   17.1765   17.2328   17.3557
   17.2299   17.3491   17.0188   17.0506   16.8834   16.8037
   16.7826   16.9575   16.9327   16.9555   16.9425   17.0221
   17.0173   17.3200   17.1745   17.1908   17.0714   16.9346
   16.8170   16.8390   16.7487   16.9688   16.6857   16.9876
   17.0025   16.9553   16.8532   17.0367   17.1509   17.1975
   17.3430   17.5376   17.3762   17.1923   17.2427   17.0506
   17.2366   17.2771   17.2307   17.0217   17.0873   17.1764
   17.3656   17.3200   17.0393   17.2907   17.5176   17.3811
   16.9425   17.0096   16.9659   16.9674   16.7732   16.6979
   16.8919   16.9553   17.0117   17.0310   17.0333   17.1655
   17.0644   17.3835   17.4825   17.4296   17.3730   17.1923
   17.0188   17.2718   17.2800   17.2509   17.2738   17.2518
   17.1914   17.1180   17.0393   17.0820   17.0148   17.0603
   17.2286   17.1764   17.1411   16.9650   16.9564   16.9086
   16.8788   16.9652   16.8532   17.0310   17.1245   17.1581
   17.2513   17.3389   17.6828   17.6595   17.1620   17.4296
   17.3762   17.3491   17.2957   17.2530   17.1233   17.2049
   17.1433   17.0978   17.1047   17.0820   17.2369   17.0948
   16.9971   17.0486   17.1914   17.0466   17.3526   17.1155
   17.1054   17.0227   17.0299   17.0367   17.0333   17.1581
   17.0870   17.4427   17.3577   17.6089   17.7695   17.6595
   17.4825   17.5376   17.2299   17.2012   17.3192   17.3513
   17.1046   17.0722   16.9235   17.0167   17.2369   17.2022
   17.1012   16.9523   17.0423   17.0978   17.1828   17.1207
   17.2553   17.1816   16.9842   17.1765   17.1509   17.1655
   17.2513   17.4427   17.5700   17.8473   17.6826   17.6089
   17.6828   17.3835   17.3430   17.3557   17.2889   17.2585
   17.2109   17.1321   17.0039   17.1513   16.9615   17.2022
   16.8608   16.7628   16.8608   17.0042   16.9235   17.0714
   17.2471   17.1964   17.2043   17.1947   17.2328   17.1975
   17.0644   17.3389   17.3577   17.8473   17.8779   17.8473
   17.3577   17.3389   17.0644   17.1975   17.2328   17.1947
   17.2043   17.1964   17.2471   17.0714   16.9235   17.0042
   16.8608   16.9523   17.1012   17.2022   16.9615   17.1513
   17.0039   17.1321   17.2109   17.2585   17.2889   17.3557
   17.3430   17.3835   17.6828   17.6089   17.6826   17.8473
   17.5700   17.4427   17.2513   17.1655   17.1509   17.1765
   16.9842   17.1816   17.2553   17.1207   17.1828   17.0978
   17.0423   16.9523   16.9971   17.0948   17.2369   17.0167
   16.9235   17.0722   17.1046   17.3513   17.3192   17.2012
   17.2299   17.5376   17.4825   17.6595   17.7695   17.6089
   17.3577   17.4427   17.0870   17.1581   17.0333   17.0367
   17.0299   17.0227   17.1054   17.1155   17.3526   17.0466
   17.1914   17.0486   16.9971   17.0603   17.0148   17.0820
   17.1047   17.0978   17.1433   17.2049   17.1233   17.2530
   17.2957   17.3491   17.3762   17.4296   17.1620   17.6595
   17.6828   17.3389   17.2513   17.1581   17.1245   17.0310
   16.8532   16.9652   16.8788   16.9086   16.9564   16.9650
   17.1411   17.1764   17.2286   17.0603   17.5176   17.2907
   17.0393   17.1180   17.1914   17.2518   17.2738   17.2509
   17.2800   17.2718   17.0188   17.1923   17.3730   17.4296
   17.4825   17.3835   17.0644   17.1655   17.0333   17.0310
   17.0117   16.9553   16.8919   16.6979   16.7732   16.9674
   16.9659   17.0096   16.9425   17.3811   17.5176   17.1908
   17.1745   17.3200   17.3656   17.1764   17.0873   17.0217
   17.2307   17.2771   17.2366   17.0506   17.2427   17.1923
   17.3762   17.5376   17.3430   17.1975   17.1509   17.0367
   16.8532   16.9553   17.0025   16.9876   16.6857   16.9688
   16.7487   16.8390   16.8170   16.9346   17.0714   17.1908
   17.2427   17.3129   17.0173   17.0221   16.9425   16.9555
   16.9327   16.9575   16.7826   16.8037   16.8834   17.0506
   17.0188   17.3491   17.2299   17.3557   17.2328   17.1765
   17.0299   16.9652   16.8919   16.9876   16.9667   16.9726
   16.8266   16.7252   16.5448   16.7302   16.8983   17.1052
   17.2427   16.8201   16.9416   16.9702   16.9840   16.9346
   16.9911   16.8933   16.7437   16.7794   16.6958   16.8037
   17.2366   17.2718   17.2957   17.2012   17.2889   17.1947
   16.9842   17.0227   16.8788   16.6979   16.6857   16.9726
   16.9256   16.8536   16.7315   16.3946   16.5780   16.5841
   16.7097   16.8201   16.5063   16.6496   16.6990   17.0118
   16.8983   16.7205   16.7406   16.6582   16.5885   16.7794
   16.7826   17.2771   17.2800   17.2530   17.3192   17.2585
   17.2043   17.1816   17.1054   16.9086   16.7732   16.9688
   16.8266   16.8536   16.5436   16.4381   16.2704   16.3150
   16.3618   16.4751   16.5063   16.4432   16.5131   16.5481
   16.5601   16.5841   16.6333   16.5703   16.5290   16.6582
   16.7437   16.9575   17.2307   17.2509   17.1233   17.3513
   17.2109   17.1964   17.2553   17.1155   16.9564   16.9674
   16.7487   16.7252   16.7315   16.4381   16.5871   16.1594
   16.1750   16.2175   16.3124   16.4432   16.4209   16.3618
   16.3114   16.3734   16.3618   16.5065   16.2709   16.5703
   16.7406   16.8933   16.9327   17.0217   17.2738   17.2049
   17.1046   17.1321   17.2471   17.1207   17.3526   16.9650
   16.9659   16.8390   16.5448   16.3946   16.2704   16.1594
   16.1617   16.2197   16.1831   16.3108   16.4209   16.3475
   16.2768   16.2923   16.2512   16.2175   16.3794   16.5065
   16.6333   16.7205   16.9911   16.9555   17.0873   17.2518
   17.1433   17.0722   17.0039   17.0714   17.1828   17.0466
   17.1411   17.0096   16.8170   16.7302   16.5780   16.3150
   16.1750   16.2197   16.2183   16.2180   16.2587   16.3475
   15.9958   16.1488   16.2380   16.2180   16.1831   16.2175
   16.3618   16.5841   16.8983   16.9346   16.9425   17.1764
   17.1914   17.0978   16.9235   17.1513   16.9235   17.0978
   17.1914   17.1764   16.9425   16.9346   16.8983   16.5841
   16.3618   16.2175   16.1831   16.2180   16.2380   16.1488
   15.9958   16.0513   15.9661   15.9939   16.0669   16.2180
   16.2512   16.3734   16.5601   17.0118   16.9840   17.0221
   17.3656   17.1180   17.1047   17.0167   16.9615   17.0042
   17.0423   17.0486   17.2286   17.3811   17.0714   17.1052
   16.7097   16.4751   16.3124   16.3108   16.2587   16.1488
   15.9642   16.0513   15.9223   15.7571   15.7771   15.9939
   16.2380   16.2923   16.3114   16.5481   16.6990   16.9702
   17.0173   17.3200   17.0393   17.0820   17.2369   17.2022
   16.8608   16.9523   16.9971   17.0603   17.5176   17.1908
   17.2427   16.8201   16.5063   16.4432   16.4209   16.3475
   15.9958   16.0513   15.9223   16.3578   15.9642   15.9939
   15.8346   16.2443   16.2183   16.2260   16.3031   16.9537
   16.8986   17.0351   17.0127   17.2699   17.1286   17.2603
   17.1923   17.0394   16.9909   16.8795   17.0588   17.4082
   17.2804   17.1024   16.9033   16.4561   16.3747   16.3704