     Program PWSCF v.6.3MaX starts on  1Dec2025 at  4:22:34

     This program is part of the open-source Quantum ESPRESSO suite
     for quantum simulation of materials; please cite
         "P. Giannozzi et al., J. Phys.:Condens. Matter 21 395502 (2009);
         "P. Giannozzi et al., J. Phys.:Condens. Matter 29 465901 (2017);
          URL http://www.quantum-espresso.org",
     in publications or presentations arising from this work. More details at
     http://www.quantum-espresso.org/quote

     Parallel version (MPI), running on     4 processors

     MPI processes distributed on     1 nodes
     R & G space division:  proc/nbgrp/npool/nimage =       4
     Reading input from pw.cuo.scf.in
Warning: card &IONS ignored
Warning: card / ignored
Warning: card &CELL ignored
Warning: card     CELL_DYNAMICS = BFGS, ignored
Warning: card     PRESS = 0 ignored
Warning: card / ignored

     Current dimensions of program PWSCF are:
     Max number of different atomic species (ntypx) = 10
     Max number of k-points (npk) =  40000
     Max angular momentum in pseudopotentials (lmaxx) =  3
     Message from routine iosys:
     minimal I/O required, wf_collect reset to FALSE

     Subspace diagonalization in iterative solution of the eigenvalue problem:
     a serial algorithm will be used

     Found symmetry operation: I + (  0.2500  0.2500  0.0000)
     This is a supercell, fractional translations are disabled

     Parallelization info
     --------------------
     sticks:   dense  smooth     PW     G-vecs:    dense   smooth      PW
     Min        1596     636    177               120758    30550    4553
     Max        1597     637    178               120760    30555    4556
     Sum        6385    2547    711               483035   122213   18219



     bravais-lattice index     =            0
     lattice parameter (alat)  =      17.6992  a.u.
     unit-cell volume          =    4367.8091 (a.u.)^3
     number of atoms/cell      =           64
     number of atomic types    =            2
     number of electrons       =       800.00
     number of Kohn-Sham states=          480
     kinetic-energy cutoff     =      35.0000  Ry
     charge density cutoff     =     350.0000  Ry
     convergence threshold     =      1.0E-07
     mixing beta               =       0.5000
     number of iterations used =            8  plain     mixing
     Exchange-correlation      = SLA  PW   PBE  PBE ( 1  4  3  4 0 0)

     celldm(1)=  17.699175  celldm(2)=   0.000000  celldm(3)=   0.000000
     celldm(4)=   0.000000  celldm(5)=   0.000000  celldm(6)=   0.000000

     crystal axes: (cart. coord. in units of alat)
               a(1) = (   1.000000   0.000000   0.000000 )
               a(2) = (   0.000000   0.730365   0.000000 )
               a(3) = (  -0.184506   0.000000   1.078610 )

     reciprocal axes: (cart. coord. in units 2 pi/alat)
               b(1) = (  1.000000 -0.000000  0.171059 )
               b(2) = (  0.000000  1.369178 -0.000000 )
               b(3) = (  0.000000  0.000000  0.927119 )


     PseudoPot. # 1 for O  read from file:
     ./o_pbe_v1.2.uspp.F.UPF
     MD5 check sum: 734c27235a0248c51dbae37a1fbe46ec
     Pseudo is Ultrasoft + core correction, Zval =  6.0
     Generated by new atomic code, or converted to UPF format
     Using radial grid of  737 points,  5 beta functions with:
                l(1) =   0
                l(2) =   0
                l(3) =   1
                l(4) =   1
                l(5) =   2
     Q(r) pseudized with  8 coefficients,  rinner =    0.900   0.900   0.900
                                                       0.900   0.900

     PseudoPot. # 2 for Cu read from file:
     ./cu_pbe_v1.2.uspp.F.UPF
     MD5 check sum: 6e991ff952a84172a2a52a1c1e996048
     Pseudo is Ultrasoft + core correction, Zval = 19.0
     Generated by new atomic code, or converted to UPF format
     Using radial grid of  867 points,  6 beta functions with:
                l(1) =   0
                l(2) =   0
                l(3) =   1
                l(4) =   1
                l(5) =   2
                l(6) =   2
     Q(r) pseudized with  8 coefficients,  rinner =    1.150   1.150   1.150
                                                       1.150   1.150

     atomic species   valence    mass     pseudopotential
        O              6.00     1.00000     O ( 1.00)
        Cu            19.00     1.00000     Cu( 1.00)

     Starting magnetic structure
     atomic species   magnetization
        O            0.000
        Cu           0.500

      2 Sym. Ops., with inversion, found



   Cartesian axes

     site n.     atom                  positions (alat units)
         1           O   tau(   1) = (  -0.0230632   0.1522811   0.1348263  )
         2           O   tau(   2) = (  -0.1614426   0.5780840   0.9437839  )
         3           O   tau(   3) = (  -0.0691897   0.5780840   0.4044788  )
         4           O   tau(   4) = (   0.2269368   0.3348724   0.1348263  )
         5           O   tau(   5) = (   0.0885574   0.0303102   0.9437839  )
         6           O   tau(   6) = (   0.1808103   0.0303102   0.4044788  )
         7           O   tau(   7) = (  -0.1153162   0.1522811   0.6741314  )
         8           O   tau(   8) = (   0.1346838   0.3348724   0.6741314  )
         9           O   tau(   9) = (  -0.0230632   0.5174637   0.1348263  )
        10           O   tau(  10) = (  -0.1614426   0.2129014   0.9437839  )
        11           O   tau(  11) = (  -0.0691897   0.2129014   0.4044788  )
        12           O   tau(  12) = (   0.2269368   0.7000550   0.1348263  )
        13           O   tau(  13) = (   0.0885574   0.3954927   0.9437839  )
        14           O   tau(  14) = (   0.1808103   0.3954927   0.4044788  )
        15           O   tau(  15) = (  -0.1153162   0.5174637   0.6741314  )
        16           O   tau(  16) = (   0.1346838   0.7000550   0.6741314  )
        17           O   tau(  17) = (   0.4769368   0.1522811   0.1348263  )
        18           O   tau(  18) = (   0.3385574   0.5780840   0.9437839  )
        19           O   tau(  19) = (   0.4308103   0.5780840   0.4044788  )
        20           O   tau(  20) = (   0.7269368   0.3348724   0.1348263  )
        21           O   tau(  21) = (   0.5885574   0.0303102   0.9437839  )
        22           O   tau(  22) = (   0.6808103   0.0303102   0.4044788  )
        23           O   tau(  23) = (   0.3846838   0.1522811   0.6741314  )
        24           O   tau(  24) = (   0.6346838   0.3348724   0.6741314  )
        25           O   tau(  25) = (   0.4769368   0.5174637   0.1348263  )
        26           O   tau(  26) = (   0.3385574   0.2129014   0.9437839  )
        27           O   tau(  27) = (   0.4308103   0.2129014   0.4044788  )
        28           O   tau(  28) = (   0.7269368   0.7000550   0.1348263  )
        29           O   tau(  29) = (   0.5885574   0.3954927   0.9437839  )
        30           O   tau(  30) = (   0.6808103   0.3954927   0.4044788  )
        31           O   tau(  31) = (   0.3846838   0.5174637   0.6741314  )
        32           O   tau(  32) = (   0.6346838   0.7000550   0.6741314  )
        33           Cu  tau(  33) = (   0.1250000   0.0912956   0.0000000  )
        34           Cu  tau(  34) = (   0.8750000   0.6390695   0.0000000  )
        35           Cu  tau(  35) = (   0.8288735   0.0912956   0.2696526  )
        36           Cu  tau(  36) = (   0.0788735   0.6390695   0.2696526  )
        37           Cu  tau(  37) = (   0.3750000   0.2738869   0.0000000  )
        38           Cu  tau(  38) = (   0.0788735   0.2738869   0.2696526  )
        39           Cu  tau(  39) = (   0.3288735   0.0912956   0.2696526  )
        40           Cu  tau(  40) = (   0.0327471   0.0912956   0.5393051  )
        41           Cu  tau(  41) = (   0.7827471   0.6390695   0.5393051  )
        42           Cu  tau(  42) = (   0.7366206   0.0912956   0.8089577  )
        43           Cu  tau(  43) = (  -0.0133794   0.6390695   0.8089577  )
        44           Cu  tau(  44) = (   0.2827471   0.2738869   0.5393051  )
        45           Cu  tau(  45) = (  -0.0133794   0.2738869   0.8089577  )
        46           Cu  tau(  46) = (   0.2366206   0.0912956   0.8089577  )
        47           Cu  tau(  47) = (   0.1250000   0.4564782   0.0000000  )
        48           Cu  tau(  48) = (   0.8750000   0.2738869   0.0000000  )
        49           Cu  tau(  49) = (   0.8288735   0.4564782   0.2696526  )
        50           Cu  tau(  50) = (   0.3750000   0.6390695   0.0000000  )
        51           Cu  tau(  51) = (   0.3288735   0.4564782   0.2696526  )
        52           Cu  tau(  52) = (   0.0327471   0.4564782   0.5393051  )
        53           Cu  tau(  53) = (   0.7827471   0.2738869   0.5393051  )
        54           Cu  tau(  54) = (   0.7366206   0.4564782   0.8089577  )
        55           Cu  tau(  55) = (   0.2827471   0.6390695   0.5393051  )
        56           Cu  tau(  56) = (   0.2366206   0.4564782   0.8089577  )
        57           Cu  tau(  57) = (   0.6250000   0.0912956   0.0000000  )
        58           Cu  tau(  58) = (   0.5788735   0.6390695   0.2696526  )
        59           Cu  tau(  59) = (   0.5788735   0.2738869   0.2696526  )
        60           Cu  tau(  60) = (   0.5327471   0.0912956   0.5393051  )
        61           Cu  tau(  61) = (   0.4866206   0.6390695   0.8089577  )
        62           Cu  tau(  62) = (   0.4866206   0.2738869   0.8089577  )
        63           Cu  tau(  63) = (   0.6250000   0.4564782   0.0000000  )
        64           Cu  tau(  64) = (   0.5327471   0.4564782   0.5393051  )

     number of k points=     8  Methfessel-Paxton smearing, width (Ry)=  0.0100
                       cart. coord. in units 2pi/alat
        k(    1) = (   0.0000000   0.0000000   0.0000000), wk =   0.1250000
        k(    2) = (   0.0000000   0.0000000  -0.4635595), wk =   0.1250000
        k(    3) = (   0.0000000  -0.6845891   0.0000000), wk =   0.1250000
        k(    4) = (   0.0000000  -0.6845891  -0.4635595), wk =   0.1250000
        k(    5) = (  -0.5000000   0.0000000  -0.0855294), wk =   0.1250000
        k(    6) = (  -0.5000000   0.0000000  -0.5490889), wk =   0.1250000
        k(    7) = (  -0.5000000  -0.6845891  -0.0855294), wk =   0.1250000
        k(    8) = (  -0.5000000  -0.6845891  -0.5490889), wk =   0.1250000

     Dense  grid:   483035 G-vectors     FFT dimensions: ( 108,  80, 120)

     Smooth grid:   122213 G-vectors     FFT dimensions: (  72,  50,  75)

     Estimated max dynamical RAM per process >       1.14 GB

     Estimated total dynamical RAM >       4.57 GB
     Generating pointlists ...
     new r_m :   0.0859 (alat units)  1.5202 (a.u.) for type    1
     new r_m :   0.0859 (alat units)  1.5202 (a.u.) for type    2

     Check: negative/imaginary core charge=   -0.000002    0.000000

     Initial potential from superposition of free atoms

     starting charge  767.99989, renormalised to  800.00000
     Starting wfcs are  544 atomic wfcs

     total cpu time spent up to now is       44.4 secs

     Self-consistent Calculation

     iteration #  1     ecut=    35.00 Ry     beta= 0.50
     Davidson diagonalization with overlap
     ethr =  1.00E-02,  avg # of iterations =  3.0

     total cpu time spent up to now is      215.9 secs

     total energy              =  -13806.52011266 Ry
     Harris-Foulkes estimate   =  -13935.84625825 Ry
     estimated scf accuracy    <     270.33656092 Ry

     total magnetization       =   100.87 Bohr mag/cell
     absolute magnetization    =   106.84 Bohr mag/cell

     iteration #  2     ecut=    35.00 Ry     beta= 0.50
     Davidson diagonalization with overlap
     ethr =  1.00E-02,  avg # of iterations =  3.0

     total cpu time spent up to now is      443.0 secs

     total energy              =  -13918.21694508 Ry
     Harris-Foulkes estimate   =  -14039.91291178 Ry
     estimated scf accuracy    <     445.16623208 Ry

     total magnetization       =     7.88 Bohr mag/cell
     absolute magnetization    =    12.23 Bohr mag/cell

     iteration #  3     ecut=    35.00 Ry     beta= 0.50
     Davidson diagonalization with overlap
     ethr =  1.00E-02,  avg # of iterations =  2.1

     total cpu time spent up to now is      591.6 secs

     total energy              =  -13937.51319429 Ry
     Harris-Foulkes estimate   =  -13948.05655099 Ry
     estimated scf accuracy    <      79.51779016 Ry

     total magnetization       =    17.41 Bohr mag/cell
     absolute magnetization    =    24.23 Bohr mag/cell

     iteration #  4     ecut=    35.00 Ry     beta= 0.50
     Davidson diagonalization with overlap
     ethr =  9.94E-03,  avg # of iterations =  2.2

     total cpu time spent up to now is      723.4 secs

     total energy              =  -13950.87046977 Ry
     Harris-Foulkes estimate   =  -13953.68403396 Ry
     estimated scf accuracy    <      22.52755120 Ry

     total magnetization       =    32.09 Bohr mag/cell
     absolute magnetization    =    38.86 Bohr mag/cell

     End of self-consistent calculation

     convergence NOT achieved after   4 iterations: stopping

     init_run     :     43.15s CPU     44.03s WALL (       1 calls)
     electrons    :    669.56s CPU    679.07s WALL (       1 calls)

     Called by init_run:
     wfcinit      :     36.53s CPU     37.24s WALL (       1 calls)
     potinit      :      1.85s CPU      1.88s WALL (       1 calls)
     hinit0       :      3.36s CPU      3.38s WALL (       1 calls)

     Called by electrons:
     c_bands      :    614.10s CPU    622.12s WALL (       4 calls)
     sum_band     :     50.22s CPU     51.14s WALL (       4 calls)
     v_of_rho     :      1.65s CPU      1.67s WALL (       5 calls)
     newd         :      4.49s CPU      5.05s WALL (       5 calls)
     mix_rho      :      0.20s CPU      0.26s WALL (       4 calls)

     Called by c_bands:
     init_us_2    :      1.70s CPU      1.72s WALL (     144 calls)
     cegterg      :    603.45s CPU    611.37s WALL (      64 calls)

     Called by sum_band:
     sum_band:bec :      0.26s CPU      0.26s WALL (      64 calls)
     addusdens    :      5.58s CPU      6.05s WALL (       4 calls)

     Called by *egterg:
     h_psi        :    245.50s CPU    248.95s WALL (     244 calls)
     s_psi        :     37.76s CPU     37.97s WALL (     244 calls)
     g_psi        :      1.23s CPU      1.24s WALL (     164 calls)
     cdiaghg      :    227.84s CPU    229.07s WALL (     228 calls)

     Called by h_psi:
     h_psi:pot    :    244.63s CPU    247.10s WALL (     244 calls)
     h_psi:calbec :     39.77s CPU     39.99s WALL (     244 calls)
     vloc_psi     :    167.07s CPU    169.09s WALL (     244 calls)
     add_vuspsi   :     37.79s CPU     38.02s WALL (     244 calls)

     General routines
     calbec       :     52.72s CPU     53.02s WALL (     308 calls)
     fft          :      1.33s CPU      1.35s WALL (     125 calls)
     ffts         :      0.03s CPU      0.03s WALL (      18 calls)
     fftw         :    180.02s CPU    182.19s WALL (  217444 calls)
     interpolate  :      0.12s CPU      0.12s WALL (      10 calls)
     davcio       :      0.00s CPU      0.20s WALL (      24 calls)

     Parallel routines
     fft_scatt_xy :     16.11s CPU     16.29s WALL (  217587 calls)
     fft_scatt_yz :     25.72s CPU     26.04s WALL (  217587 calls)

     PWSCF        : 11m52.94s CPU    12m 8.49s WALL


   This run was terminated on:   4:34:42   1Dec2025

=------------------------------------------------------------------------------=
   JOB DONE.
=------------------------------------------------------------------------------=
