
     Program PWSCF v.7.2 starts on 25Dec2023 at  5:40:11 

     This program is part of the open-source Quantum ESPRESSO suite
     for quantum simulation of materials; please cite
         "P. Giannozzi et al., J. Phys.:Condens. Matter 21 395502 (2009);
         "P. Giannozzi et al., J. Phys.:Condens. Matter 29 465901 (2017);
         "P. Giannozzi et al., J. Chem. Phys. 152 154105 (2020);
          URL http://www.quantum-espresso.org", 
     in publications or presentations arising from this work. More details at
     http://www.quantum-espresso.org/quote

     Parallel version (MPI & OpenMP), running on       4 processor cores
     Number of MPI processes:                 4
     Threads/MPI process:                     1

     MPI processes distributed on     1 nodes
     519 MiB available memory on the printing compute node when the environment starts

     Reading input from pw.md.h2o.in

     Current dimensions of program PWSCF are:
     Max number of different atomic species (ntypx) = 10
     Max number of k-points (npk) =  40000
     Max angular momentum in pseudopotentials (lmaxx) =  4

     File ./tmp/h2o.md deleted, as requested
     file O.pbe-n-kjpaw_psl.0.1.UPF: wavefunction(s)  2P renormalized

     R & G space division:  proc/nbgrp/npool/nimage =       4
     Subspace diagonalization in iterative solution of the eigenvalue problem:
     a serial algorithm will be used


     Parallelization info
     --------------------
     sticks:   dense  smooth     PW     G-vecs:    dense   smooth      PW
     Min         717     717    179                28827    28827    3589
     Max         718     718    180                28830    28830    3592
     Sum        2869    2869    717               115313   115313   14363

     Using Slab Decomposition



     bravais-lattice index     =            1
     lattice parameter (alat)  =      15.0000  a.u.
     unit-cell volume          =    3375.0000 (a.u.)^3
     number of atoms/cell      =            3
     number of atomic types    =            2
     number of electrons       =         8.00
     number of Kohn-Sham states=            4
     kinetic-energy cutoff     =      40.0000  Ry
     charge density cutoff     =     160.0000  Ry
     scf convergence threshold =      1.0E-08
     mixing beta               =       0.7000
     number of iterations used =            8  plain     mixing
     energy convergence thresh.=      0.0E+00
     force convergence thresh. =      0.0E+00
     Exchange-correlation= SLA  PW   PBX  PBC
                           (   1   4   3   4   0   0   0)
     nstep                     =          100


     celldm(1)=  15.000000  celldm(2)=   0.000000  celldm(3)=   0.000000
     celldm(4)=   0.000000  celldm(5)=   0.000000  celldm(6)=   0.000000

     crystal axes: (cart. coord. in units of alat)
               a(1) = (   1.000000   0.000000   0.000000 )  
               a(2) = (   0.000000   1.000000   0.000000 )  
               a(3) = (   0.000000   0.000000   1.000000 )  

     reciprocal axes: (cart. coord. in units 2 pi/alat)
               b(1) = (  1.000000  0.000000  0.000000 )  
               b(2) = (  0.000000  1.000000  0.000000 )  
               b(3) = (  0.000000  0.000000  1.000000 )  


     PseudoPot. # 1 for H  read from file:
     ../pseudos/H_ONCV_PBE-1.0.oncvpsp.upf
     MD5 check sum: 1790becc920ee074925cf490c71280fe
     Pseudo is Norm-conserving, Zval =  1.0
     Generated using ONCVPSP code by D. R. Hamann
     Using radial grid of 1166 points,  2 beta functions with: 
                l(1) =   0
                l(2) =   0

     PseudoPot. # 2 for O  read from file:
     ../pseudos/O.pbe-n-kjpaw_psl.0.1.UPF
     MD5 check sum: 0234752ac141de4415c5fc33072bef88
     Pseudo is Projector augmented-wave + core cor, Zval =  6.0
     Generated using "atomic" code by A. Dal Corso  v.5.0.99 svn rev. 10869
     Shape of augmentation charge: BESSEL
     Using radial grid of 1095 points,  4 beta functions with: 
                l(1) =   0
                l(2) =   0
                l(3) =   1
                l(4) =   1
     Q(r) pseudized with 0 coefficients 


     atomic species   valence    mass     pseudopotential
        H              1.00     1.00784     H ( 1.00)
        O              6.00    15.99900     O ( 1.00)

     No symmetry found



   Cartesian axes

     site n.     atom                  positions (alat units)
         1           O   tau(   1) = (   0.6299096   0.6048607   0.6299045  )
         2           H   tau(   2) = (   0.6299082   0.6802268   0.7265372  )
         3           H   tau(   3) = (   0.6299083   0.6802277   0.5332844  )

     number of k points=     1
                       cart. coord. in units 2pi/alat
        k(    1) = (   0.0000000   0.0000000   0.0000000), wk =   2.0000000

     Dense  grid:   115313 G-vectors     FFT dimensions: (  64,  64,  64)

     Estimated max dynamical RAM per process >      40.82 MB

     Estimated total dynamical RAM >     163.29 MB

     Check: negative core charge=   -0.000003

     Initial potential from superposition of free atoms

     starting charge       8.0000, renormalised to       8.0000

     negative rho (up, down):  2.254E-03 0.000E+00
     Starting wfcs are    6 randomized atomic wfcs
     Checking if some PAW data can be deallocated... 

     total cpu time spent up to now is        0.7 secs

     Self-consistent Calculation

     iteration #  1     ecut=    40.00 Ry     beta= 0.70
     Davidson diagonalization with overlap
     ethr =  1.00E-02,  avg # of iterations =  2.0

     negative rho (up, down):  4.087E-03 0.000E+00

     total cpu time spent up to now is        1.0 secs

     total energy              =     -43.81158621 Ry
     estimated scf accuracy    <       0.47728515 Ry

     iteration #  2     ecut=    40.00 Ry     beta= 0.70
     Davidson diagonalization with overlap
     ethr =  5.97E-03,  avg # of iterations =  3.0

     negative rho (up, down):  3.251E-03 0.000E+00

     total cpu time spent up to now is        1.3 secs

     total energy              =     -43.94812962 Ry
     estimated scf accuracy    <       0.46616620 Ry

     iteration #  3     ecut=    40.00 Ry     beta= 0.70
     Davidson diagonalization with overlap
     ethr =  5.83E-03,  avg # of iterations =  2.0

     negative rho (up, down):  3.085E-03 0.000E+00

     total cpu time spent up to now is        1.6 secs

     total energy              =     -44.01923938 Ry
     estimated scf accuracy    <       0.01251266 Ry

     iteration #  4     ecut=    40.00 Ry     beta= 0.70
     Davidson diagonalization with overlap
     ethr =  1.56E-04,  avg # of iterations =  4.0

     negative rho (up, down):  3.304E-03 0.000E+00

     total cpu time spent up to now is        1.9 secs

     total energy              =     -44.02985244 Ry
     estimated scf accuracy    <       0.02067237 Ry

     iteration #  5     ecut=    40.00 Ry     beta= 0.70
     Davidson diagonalization with overlap
     ethr =  1.56E-04,  avg # of iterations =  2.0

     negative rho (up, down):  3.418E-03 0.000E+00

     total cpu time spent up to now is        2.4 secs

     total energy              =     -44.03010177 Ry
     estimated scf accuracy    <       0.00392364 Ry

     iteration #  6     ecut=    40.00 Ry     beta= 0.70
     Davidson diagonalization with overlap
     ethr =  4.90E-05,  avg # of iterations =  2.0

     negative rho (up, down):  3.535E-03 0.000E+00

     total cpu time spent up to now is        3.0 secs

     total energy              =     -44.03016964 Ry
     estimated scf accuracy    <       0.00062521 Ry

     iteration #  7     ecut=    40.00 Ry     beta= 0.70
     Davidson diagonalization with overlap
     ethr =  7.82E-06,  avg # of iterations =  3.0

     negative rho (up, down):  3.502E-03 0.000E+00

     total cpu time spent up to now is        3.3 secs

     total energy              =     -44.03040184 Ry
     estimated scf accuracy    <       0.00004946 Ry

     iteration #  8     ecut=    40.00 Ry     beta= 0.70
     Davidson diagonalization with overlap
     ethr =  6.18E-07,  avg # of iterations =  2.0

     negative rho (up, down):  3.504E-03 0.000E+00

     total cpu time spent up to now is        3.9 secs

     total energy              =     -44.03040934 Ry
     estimated scf accuracy    <       0.00000530 Ry

     iteration #  9     ecut=    40.00 Ry     beta= 0.70
     Davidson diagonalization with overlap
     ethr =  6.63E-08,  avg # of iterations =  2.0

     negative rho (up, down):  3.495E-03 0.000E+00

     total cpu time spent up to now is        4.4 secs

     total energy              =     -44.03040629 Ry
     estimated scf accuracy    <       0.00000806 Ry

     iteration # 10     ecut=    40.00 Ry     beta= 0.70
     Davidson diagonalization with overlap
     ethr =  6.63E-08,  avg # of iterations =  2.0

     negative rho (up, down):  3.493E-03 0.000E+00

     total cpu time spent up to now is        5.0 secs

     total energy              =     -44.03040717 Ry
     estimated scf accuracy    <       0.00000040 Ry

     iteration # 11     ecut=    40.00 Ry     beta= 0.70
     Davidson diagonalization with overlap
     ethr =  5.04E-09,  avg # of iterations =  2.0

     negative rho (up, down):  3.492E-03 0.000E+00

     total cpu time spent up to now is        5.3 secs

     total energy              =     -44.03040723 Ry
     estimated scf accuracy    <       0.00000004 Ry

     iteration # 12     ecut=    40.00 Ry     beta= 0.70
     Davidson diagonalization with overlap
     ethr =  4.51E-10,  avg # of iterations =  3.0

     negative rho (up, down):  3.493E-03 0.000E+00

     total cpu time spent up to now is        5.6 secs

     End of self-consistent calculation

          k = 0.0000 0.0000 0.0000 ( 14363 PWs)   bands (ev):

   -25.0180 -12.7995  -9.0716  -6.9693

     highest occupied level (ev):    -6.9693

!    total energy              =     -44.03040724 Ry
     estimated scf accuracy    <          3.9E-09 Ry

     convergence has been achieved in  12 iterations

     negative rho (up, down):  3.493E-03 0.000E+00

     Forces acting on atoms (cartesian axes, Ry/au):

     atom    1 type  2   force =     0.00000420    0.00000266    0.00010288
     atom    2 type  1   force =    -0.00000212   -0.00004535   -0.00006359
     atom    3 type  1   force =    -0.00000208    0.00004269   -0.00003929
     The non-local contrib.  to forces
     atom    1 type  2   force =    -0.00001819    2.45591976    0.00006724
     atom    2 type  1   force =     0.00000122   -0.06724881   -0.09270059
     atom    3 type  1   force =     0.00000112   -0.06727472    0.09272125
     The ionic contribution  to forces
     atom    1 type  2   force =     0.00007398   -4.33576804    0.00028128
     atom    2 type  1   force =    -0.00003842    2.16761969    3.00869361
     atom    3 type  1   force =    -0.00003556    2.16814835   -3.00897488
     The local contribution  to forces
     atom    1 type  2   force =    -0.00003161    1.90412014   -0.00022994
     atom    2 type  1   force =     0.00003767   -2.10043001   -2.91607470
     atom    3 type  1   force =     0.00003496   -2.10084472    2.91622301
     The core correction contribution to forces
     atom    1 type  2   force =    -0.00001737   -0.02432247   -0.00002043
     atom    2 type  1   force =     0.00000000    0.00000000    0.00000000
     atom    3 type  1   force =     0.00000000    0.00000000    0.00000000
     The Hubbard contrib.    to forces
     atom    1 type  2   force =     0.00000000    0.00000000    0.00000000
     atom    2 type  1   force =     0.00000000    0.00000000    0.00000000
     atom    3 type  1   force =     0.00000000    0.00000000    0.00000000
     The SCF correction term to forces
     atom    1 type  2   force =     0.00000001    0.00005301    0.00000001
     atom    2 type  1   force =     0.00000001    0.00001352    0.00001338
     atom    3 type  1   force =     0.00000001    0.00001352   -0.00001339

     Total force =     0.000142     Total SCF correction =     0.000059
     SCF correction compared to forces is large: reduce conv_thr to get better values


     Computing stress (Cartesian axis) and pressure


     negative rho (up, down):  3.493E-03 0.000E+00
          total   stress  (Ry/bohr**3)                   (kbar)     P=       -1.96
  -0.00001506   0.00000001  -0.00000000           -2.22        0.00       -0.00
   0.00000001  -0.00001378  -0.00000004            0.00       -2.03       -0.01
  -0.00000000  -0.00000004  -0.00001123           -0.00       -0.01       -1.65


     Molecular Dynamics Calculation

     Starting temperature  =   300.00 K

     temperature is set once at start

     mass H                =     1.01
     mass O                =    16.00
     Time step             =    20.00 a.u.,  0.9676 femto-seconds

     Entering Dynamics:    iteration =     1
                           time      =   0.0010 pico-seconds


ATOMIC_POSITIONS (angstrom)
O             5.0018269334        4.8030993365        4.9997014651
H             4.9836565005        5.3708880182        5.7654130891
H             4.9874429489        5.3974291915        4.2388309749


     kinetic energy (Ekin) =           0.00570026 Ry
     temperature           =         300.00000000 K 
     Ekin + Etot (const)   =         -44.02470698 Ry
     Ions kinetic stress =            0.17 (kbar)
                                      0.17           0.20          -0.02
                                      0.20           0.31           0.01
                                     -0.02           0.01           0.01



     Linear momentum :   -0.0000000000    0.0000000000   -0.0000000000

     File ./tmp/h2o.msd.dat deleted, as requested

     Writing config-only to output data dir ./tmp/h2o.save/
     NEW-OLD atomic charge density approx. for the potential

     Check: negative core charge=   -0.000003

     negative rho (up, down):  3.553E-03 0.000E+00

     total cpu time spent up to now is        7.1 secs

     Self-consistent Calculation

     iteration #  1     ecut=    40.00 Ry     beta= 0.70
     Davidson diagonalization with overlap
     ethr =  1.00E-06,  avg # of iterations =  5.0

     negative rho (up, down):  3.592E-03 0.000E+00

     total cpu time spent up to now is        7.4 secs

     total energy              =     -44.02942808 Ry
     estimated scf accuracy    <       0.00048161 Ry

     iteration #  2     ecut=    40.00 Ry     beta= 0.70
     Davidson diagonalization with overlap
     ethr =  6.02E-06,  avg # of iterations =  2.0

     negative rho (up, down):  3.559E-03 0.000E+00

     total cpu time spent up to now is        7.7 secs

     total energy              =     -44.02956866 Ry
     estimated scf accuracy    <       0.00028690 Ry

     iteration #  3     ecut=    40.00 Ry     beta= 0.70
     Davidson diagonalization with overlap
     ethr =  3.59E-06,  avg # of iterations =  2.0

     negative rho (up, down):  3.539E-03 0.000E+00

     total cpu time spent up to now is        8.1 secs

     total energy              =     -44.02961091 Ry
     estimated scf accuracy    <       0.00000543 Ry

     iteration #  4     ecut=    40.00 Ry     beta= 0.70
     Davidson diagonalization with overlap
     ethr =  6.78E-08,  avg # of iterations =  3.0

     negative rho (up, down):  3.545E-03 0.000E+00

     total cpu time spent up to now is        8.4 secs

     total energy              =     -44.02961304 Ry
     estimated scf accuracy    <       0.00000564 Ry

     iteration #  5     ecut=    40.00 Ry     beta= 0.70
     Davidson diagonalization with overlap
     ethr =  6.78E-08,  avg # of iterations =  2.0

     negative rho (up, down):  3.547E-03 0.000E+00

     total cpu time spent up to now is        8.7 secs

     total energy              =     -44.02961343 Ry
     estimated scf accuracy    <       0.00000057 Ry

     iteration #  6     ecut=    40.00 Ry     beta= 0.70
     Davidson diagonalization with overlap
     ethr =  7.08E-09,  avg # of iterations =  3.0

     negative rho (up, down):  3.548E-03 0.000E+00

     total cpu time spent up to now is        9.0 secs

     total energy              =     -44.02961373 Ry
     estimated scf accuracy    <       0.00000005 Ry

     iteration #  7     ecut=    40.00 Ry     beta= 0.70
     Davidson diagonalization with overlap
     ethr =  5.77E-10,  avg # of iterations =  2.0

     negative rho (up, down):  3.547E-03 0.000E+00

     total cpu time spent up to now is        9.5 secs

     total energy              =     -44.02961371 Ry
     estimated scf accuracy    <       0.00000004 Ry

     iteration #  8     ecut=    40.00 Ry     beta= 0.70
     Davidson diagonalization with overlap
     ethr =  4.75E-10,  avg # of iterations =  2.0

     negative rho (up, down):  3.547E-03 0.000E+00

     total cpu time spent up to now is       10.0 secs

     End of self-consistent calculation

          k = 0.0000 0.0000 0.0000 ( 14363 PWs)   bands (ev):

   -25.1430 -12.9872  -9.0264  -6.9921

     highest occupied level (ev):    -6.9921

!    total energy              =     -44.02961372 Ry
     estimated scf accuracy    <          2.4E-10 Ry

     convergence has been achieved in   8 iterations

     negative rho (up, down):  3.547E-03 0.000E+00

     Forces acting on atoms (cartesian axes, Ry/au):

     atom    1 type  2   force =     0.00100819   -0.03312698   -0.02075085
     atom    2 type  1   force =    -0.00077257    0.02406662    0.02881175
     atom    3 type  1   force =    -0.00023561    0.00906036   -0.00806090
     The non-local contrib.  to forces
     atom    1 type  2   force =    -0.06832915    2.43627088    0.03304342
     atom    2 type  1   force =     0.00225638   -0.06988829   -0.10152186
     atom    3 type  1   force =     0.00164881   -0.06901919    0.09532632
     The ionic contribution  to forces
     atom    1 type  2   force =     0.12328198   -4.38793803   -0.12861095
     atom    2 type  1   force =    -0.07055225    2.18179785    3.17941339
     atom    3 type  1   force =    -0.05272973    2.20614017   -3.05080244
     The local contribution  to forces
     atom    1 type  2   force =    -0.05459380    1.94230425    0.07494067
     atom    2 type  1   force =     0.06752524   -2.08783821   -3.04908787
     atom    3 type  1   force =     0.05084724   -2.12805584    2.94741344
     The core correction contribution to forces
     atom    1 type  2   force =     0.00065095   -0.02377096   -0.00012947
     atom    2 type  1   force =     0.00000000    0.00000000    0.00000000
     atom    3 type  1   force =     0.00000000    0.00000000    0.00000000
     The Hubbard contrib.    to forces
     atom    1 type  2   force =     0.00000000    0.00000000    0.00000000
     atom    2 type  1   force =     0.00000000    0.00000000    0.00000000
     atom    3 type  1   force =     0.00000000    0.00000000    0.00000000
     The SCF correction term to forces
     atom    1 type  2   force =     0.00000010    0.00001524    0.00000058
     atom    2 type  1   force =    -0.00000004    0.00000364    0.00000322
     atom    3 type  1   force =    -0.00000004    0.00000359   -0.00000312

     Total force =     0.055552     Total SCF correction =     0.000017


     Computing stress (Cartesian axis) and pressure


     negative rho (up, down):  3.547E-03 0.000E+00
          total   stress  (Ry/bohr**3)                   (kbar)     P=       -0.72
  -0.00001527  -0.00000038  -0.00000024           -2.25       -0.06       -0.03
  -0.00000038  -0.00000354   0.00000634           -0.06       -0.52        0.93
  -0.00000024   0.00000634   0.00000406           -0.03        0.93        0.60


     Entering Dynamics:    iteration =     2
                           time      =   0.0019 pico-seconds


ATOMIC_POSITIONS (angstrom)
O             5.0036616990        4.8045401106        4.9991349980
H             4.9671387425        5.3479140591        5.7704611470
H             4.9748346416        5.3975315185        4.2427753231


     kinetic energy (Ekin) =           0.00499980 Ry
     temperature           =         263.13549240 K 
     Ekin + Etot (const)   =         -44.02461392 Ry
     Ions kinetic stress =            0.15 (kbar)
                                      0.17           0.17          -0.04
                                      0.17           0.25          -0.02
                                     -0.04          -0.02           0.01



     Linear momentum :    0.0000000000    0.0000000000    0.0000000000

     Writing config-only to output data dir ./tmp/h2o.save/

     first order wave-functions extrapolation
     first order charge density extrapolation

     Check: negative core charge=   -0.000003

     negative rho (up, down):  3.573E-03 0.000E+00

     total cpu time spent up to now is       12.4 secs

     Self-consistent Calculation

     iteration #  1     ecut=    40.00 Ry     beta= 0.70
     Davidson diagonalization with overlap
     ethr =  1.00E-06,  avg # of iterations =  3.0

     negative rho (up, down):  3.557E-03 0.000E+00

     total cpu time spent up to now is       12.9 secs

     total energy              =     -44.02851174 Ry
     estimated scf accuracy    <       0.00008829 Ry

     iteration #  2     ecut=    40.00 Ry     beta= 0.70
     Davidson diagonalization with overlap
     ethr =  1.10E-06,  avg # of iterations =  2.0

     negative rho (up, down):  3.571E-03 0.000E+00

     total cpu time spent up to now is       13.4 secs

     total energy              =     -44.02853768 Ry
     estimated scf accuracy    <       0.00004936 Ry

     iteration #  3     ecut=    40.00 Ry     beta= 0.70
     Davidson diagonalization with overlap
     ethr =  6.17E-07,  avg # of iterations =  2.0

     negative rho (up, down):  3.580E-03 0.000E+00

     total cpu time spent up to now is       13.8 secs

     total energy              =     -44.02854520 Ry
     estimated scf accuracy    <       0.00000067 Ry

     iteration #  4     ecut=    40.00 Ry     beta= 0.70
     Davidson diagonalization with overlap
     ethr =  8.33E-09,  avg # of iterations =  3.0

     negative rho (up, down):  3.578E-03 0.000E+00

     total cpu time spent up to now is       14.3 secs

     total energy              =     -44.02854550 Ry
     estimated scf accuracy    <       0.00000070 Ry

     iteration #  5     ecut=    40.00 Ry     beta= 0.70
     Davidson diagonalization with overlap
     ethr =  8.33E-09,  avg # of iterations =  2.0

     negative rho (up, down):  3.577E-03 0.000E+00

     total cpu time spent up to now is       14.6 secs

     total energy              =     -44.02854558 Ry
     estimated scf accuracy    <       0.00000004 Ry

     iteration #  6     ecut=    40.00 Ry     beta= 0.70
     Davidson diagonalization with overlap
     ethr =  4.53E-10,  avg # of iterations =  3.0

     negative rho (up, down):  3.577E-03 0.000E+00

     total cpu time spent up to now is       14.9 secs

     End of self-consistent calculation

          k = 0.0000 0.0000 0.0000 ( 14363 PWs)   bands (ev):

   -25.1975 -13.1100  -8.9774  -7.0019

     highest occupied level (ev):    -7.0019

!    total energy              =     -44.02854560 Ry
     estimated scf accuracy    <          8.4E-09 Ry

     convergence has been achieved in   6 iterations

     negative rho (up, down):  3.577E-03 0.000E+00

     Forces acting on atoms (cartesian axes, Ry/au):

     atom    1 type  2   force =     0.00322763   -0.05174304   -0.03180622
     atom    2 type  1   force =    -0.00242306    0.03651541    0.04335665
     atom    3 type  1   force =    -0.00080457    0.01522763   -0.01155043
     The non-local contrib.  to forces
     atom    1 type  2   force =    -0.13912668    2.41451519    0.06437873
     atom    2 type  1   force =     0.00473592   -0.06969202   -0.10698084
     atom    3 type  1   force =     0.00335433   -0.07009164    0.09679742
     The ionic contribution  to forces
     atom    1 type  2   force =     0.25303712   -4.37942951   -0.21949250
     atom    2 type  1   force =    -0.14600793    2.14663800    3.28880365
     atom    3 type  1   force =    -0.10702919    2.23279151   -3.06931115
     The local contribution  to forces
     atom    1 type  2   force =    -0.11200423    1.93647074    0.12362852
     atom    2 type  1   force =     0.13885261   -2.04045019   -3.13849135
     atom    3 type  1   force =     0.10287375   -2.14749292    2.96097359
     The core correction contribution to forces
     atom    1 type  2   force =     0.00133352   -0.02340447   -0.00033144
     atom    2 type  1   force =     0.00000000    0.00000000    0.00000000
     atom    3 type  1   force =     0.00000000    0.00000000    0.00000000
     The Hubbard contrib.    to forces
     atom    1 type  2   force =     0.00000000    0.00000000    0.00000000
     atom    2 type  1   force =     0.00000000    0.00000000    0.00000000
     atom    3 type  1   force =     0.00000000    0.00000000    0.00000000
     The SCF correction term to forces
     atom    1 type  2   force =    -0.00000987    0.00010596    0.00000348
     atom    2 type  1   force =    -0.00000145    0.00002057    0.00001820
     atom    3 type  1   force =    -0.00000124    0.00002163   -0.00001728

     Total force =     0.085349     Total SCF correction =     0.000113


     Computing stress (Cartesian axis) and pressure


     negative rho (up, down):  3.577E-03 0.000E+00
          total   stress  (Ry/bohr**3)                   (kbar)     P=       -0.08
  -0.00001519  -0.00000111  -0.00000071           -2.24       -0.16       -0.11
  -0.00000111   0.00000185   0.00000915           -0.16        0.27        1.35
  -0.00000071   0.00000915   0.00001177           -0.11        1.35        1.73


     Entering Dynamics:    iteration =     3
                           time      =   0.0029 pico-seconds


ATOMIC_POSITIONS (angstrom)
O             5.0055433159        4.8052297980        4.9981068412
H             4.9500626373        5.3333543538        5.7854998874
H             4.9620409370        5.4011427524        4.2440581032


     kinetic energy (Ekin) =           0.00405825 Ry
     temperature           =         213.58210774 K 
     Ekin + Etot (const)   =         -44.02448735 Ry
     Ions kinetic stress =            0.12 (kbar)
                                      0.18           0.12          -0.08
                                      0.12           0.13          -0.07
                                     -0.08          -0.07           0.04



     Linear momentum :    0.0000000000    0.0000000000    0.0000000000

     Writing config-only to output data dir ./tmp/h2o.save/

     second order wave-functions extrapolation
     second order charge density extrapolation

     Check: negative core charge=   -0.000003

     negative rho (up, down):  3.568E-03 0.000E+00

     total cpu time spent up to now is       17.2 secs

     Self-consistent Calculation

     iteration #  1     ecut=    40.00 Ry     beta= 0.70
     Davidson diagonalization with overlap
     ethr =  1.00E-06,  avg # of iterations =  4.0

     negative rho (up, down):  3.539E-03 0.000E+00

     total cpu time spent up to now is       17.8 secs

     total energy              =     -44.02880074 Ry
     estimated scf accuracy    <       0.00021740 Ry

     iteration #  2     ecut=    40.00 Ry     beta= 0.70
     Davidson diagonalization with overlap
     ethr =  2.72E-06,  avg # of iterations =  2.0

     negative rho (up, down):  3.561E-03 0.000E+00

     total cpu time spent up to now is       18.3 secs

     total energy              =     -44.02886697 Ry
     estimated scf accuracy    <       0.00013120 Ry

     iteration #  3     ecut=    40.00 Ry     beta= 0.70
     Davidson diagonalization with overlap
     ethr =  1.64E-06,  avg # of iterations =  2.0

     negative rho (up, down):  3.574E-03 0.000E+00

     total cpu time spent up to now is       18.8 secs

     total energy              =     -44.02888620 Ry
     estimated scf accuracy    <       0.00000193 Ry

     iteration #  4     ecut=    40.00 Ry     beta= 0.70
     Davidson diagonalization with overlap
     ethr =  2.41E-08,  avg # of iterations =  3.0

     negative rho (up, down):  3.570E-03 0.000E+00

     total cpu time spent up to now is       19.2 secs

     total energy              =     -44.02888719 Ry
     estimated scf accuracy    <       0.00000193 Ry

     iteration #  5     ecut=    40.00 Ry     beta= 0.70
     Davidson diagonalization with overlap
     ethr =  2.41E-08,  avg # of iterations =  2.0

     negative rho (up, down):  3.569E-03 0.000E+00

     total cpu time spent up to now is       19.8 secs

     total energy              =     -44.02888741 Ry
     estimated scf accuracy    <       0.00000011 Ry

     iteration #  6     ecut=    40.00 Ry     beta= 0.70
     Davidson diagonalization with overlap
     ethr =  1.35E-09,  avg # of iterations =  3.0

     negative rho (up, down):  3.569E-03 0.000E+00

     total cpu time spent up to now is       20.4 secs

     total energy              =     -44.02888747 Ry
     estimated scf accuracy    <       0.00000002 Ry

     iteration #  7     ecut=    40.00 Ry     beta= 0.70
     Davidson diagonalization with overlap
     ethr =  2.79E-10,  avg # of iterations =  2.0

     negative rho (up, down):  3.570E-03 0.000E+00

     total cpu time spent up to now is       20.9 secs

     End of self-consistent calculation

          k = 0.0000 0.0000 0.0000 ( 14363 PWs)   bands (ev):

   -25.1434 -13.1267  -8.9246  -6.9902

     highest occupied level (ev):    -6.9902

!    total energy              =     -44.02888747 Ry
     estimated scf accuracy    <          4.5E-09 Ry

     convergence has been achieved in   7 iterations

     negative rho (up, down):  3.570E-03 0.000E+00

     Forces acting on atoms (cartesian axes, Ry/au):

     atom    1 type  2   force =     0.00445028   -0.04705001   -0.02325866
     atom    2 type  1   force =    -0.00308494    0.03058485    0.03117216
     atom    3 type  1   force =    -0.00136534    0.01646516   -0.00791350
     The non-local contrib.  to forces
     atom    1 type  2   force =    -0.21132344    2.39572041    0.09466126
     atom    2 type  1   force =     0.00697704   -0.06551095   -0.10633525
     atom    3 type  1   force =     0.00502657   -0.07012015    0.09641482
     The ionic contribution  to forces
     atom    1 type  2   force =     0.37918483   -4.28963338   -0.24215192
     atom    2 type  1   force =    -0.21795096    2.04721241    3.29331590
     atom    3 type  1   force =    -0.16123387    2.24242097   -3.05116398
     The local contribution  to forces
     atom    1 type  2   force =    -0.16545157    1.87015235    0.12495813
     atom    2 type  1   force =     0.20789448   -1.95114498   -3.15582887
     atom    3 type  1   force =     0.15484716   -2.15586460    2.94684198
     The core correction contribution to forces
     atom    1 type  2   force =     0.00205067   -0.02337559   -0.00072428
     atom    2 type  1   force =     0.00000000    0.00000000    0.00000000
     atom    3 type  1   force =     0.00000000    0.00000000    0.00000000
     The Hubbard contrib.    to forces
     atom    1 type  2   force =     0.00000000    0.00000000    0.00000000
     atom    2 type  1   force =     0.00000000    0.00000000    0.00000000
     atom    3 type  1   force =     0.00000000    0.00000000    0.00000000
     The SCF correction term to forces
     atom    1 type  2   force =    -0.00000613    0.00007294   -0.00000874
     atom    2 type  1   force =    -0.00000143    0.00001511    0.00001348
     atom    3 type  1   force =    -0.00000112    0.00001567   -0.00001321

     Total force =     0.070899     Total SCF correction =     0.000079


     Computing stress (Cartesian axis) and pressure


     negative rho (up, down):  3.570E-03 0.000E+00
          total   stress  (Ry/bohr**3)                   (kbar)     P=       -0.46
  -0.00001509  -0.00000154  -0.00000081           -2.22       -0.23       -0.12
  -0.00000154   0.00000026   0.00000640           -0.23        0.04        0.94
  -0.00000081   0.00000640   0.00000541           -0.12        0.94        0.80


     Entering Dynamics:    iteration =     4
                           time      =   0.0039 pico-seconds


ATOMIC_POSITIONS (angstrom)
O             5.0074895318        4.8052365211        4.9967410684
H             4.9322756691        5.3258423227        5.8077216358
H             4.9489326161        5.4085480563        4.2435173743


     kinetic energy (Ekin) =           0.00432087 Ry
     temperature           =         227.40389623 K 
     Ekin + Etot (const)   =         -44.02456660 Ry
     Ions kinetic stress =            0.13 (kbar)
                                      0.19           0.05          -0.13
                                      0.05           0.06          -0.08
                                     -0.13          -0.08           0.13



     Linear momentum :    0.0000000000    0.0000000000    0.0000000000

     Writing config-only to output data dir ./tmp/h2o.save/

     second order wave-functions extrapolation
     second order charge density extrapolation

     Check: negative core charge=   -0.000003

     negative rho (up, down):  3.532E-03 0.000E+00

     total cpu time spent up to now is       23.2 secs

     Self-consistent Calculation

     iteration #  1     ecut=    40.00 Ry     beta= 0.70
     Davidson diagonalization with overlap
     ethr =  1.00E-06,  avg # of iterations =  3.0

     Threshold (ethr) on eigenvalues was too large:
     Diagonalizing with lowered threshold

     Davidson diagonalization with overlap
     ethr =  1.19E-08,  avg # of iterations =  2.0

     negative rho (up, down):  3.532E-03 0.000E+00

     total cpu time spent up to now is       24.0 secs

     total energy              =     -44.02960161 Ry
     estimated scf accuracy    <       0.00000095 Ry

     iteration #  2     ecut=    40.00 Ry     beta= 0.70
     Davidson diagonalization with overlap
     ethr =  1.19E-08,  avg # of iterations =  1.0

     negative rho (up, down):  3.532E-03 0.000E+00

     total cpu time spent up to now is       24.5 secs

     total energy              =     -44.02960169 Ry
     estimated scf accuracy    <       0.00000007 Ry

     iteration #  3     ecut=    40.00 Ry     beta= 0.70
     Davidson diagonalization with overlap
     ethr =  9.06E-10,  avg # of iterations =  2.0

     negative rho (up, down):  3.531E-03 0.000E+00

     total cpu time spent up to now is       25.0 secs

     End of self-consistent calculation

          k = 0.0000 0.0000 0.0000 ( 14363 PWs)   bands (ev):

   -25.0086 -13.0497  -8.8765  -6.9620

     highest occupied level (ev):    -6.9620

!    total energy              =     -44.02960170 Ry
     estimated scf accuracy    <          7.9E-09 Ry

     convergence has been achieved in   3 iterations

     negative rho (up, down):  3.531E-03 0.000E+00

     Forces acting on atoms (cartesian axes, Ry/au):

     atom    1 type  2   force =     0.00313338   -0.02572474   -0.00164065
     atom    2 type  1   force =    -0.00158116    0.01296339   -0.00000359
     atom    3 type  1   force =    -0.00155222    0.01276135    0.00164424
     The non-local contrib.  to forces
     atom    1 type  2   force =    -0.28356601    2.38140756    0.12267684
     atom    2 type  1   force =     0.00867465   -0.05903278   -0.10097699
     atom    3 type  1   force =     0.00658917   -0.06928057    0.09428414
     The ionic contribution  to forces
     atom    1 type  2   force =     0.49403748   -4.14941858   -0.21473287
     atom    2 type  1   force =    -0.28021496    1.91103117    3.21387719
     atom    3 type  1   force =    -0.21382252    2.23838741   -2.99914432
     The local contribution  to forces
     atom    1 type  2   force =    -0.21018472    1.76587313    0.09161358
     atom    2 type  1   force =     0.26995990   -1.83900506   -3.11288475
     atom    3 type  1   force =     0.20568205   -2.15631515    2.90648063
     The core correction contribution to forces
     atom    1 type  2   force =     0.00280658   -0.02360729   -0.00124003
     atom    2 type  1   force =     0.00000000    0.00000000    0.00000000
     atom    3 type  1   force =     0.00000000    0.00000000    0.00000000
     The Hubbard contrib.    to forces
     atom    1 type  2   force =     0.00000000    0.00000000    0.00000000
     atom    2 type  1   force =     0.00000000    0.00000000    0.00000000
     atom    3 type  1   force =     0.00000000    0.00000000    0.00000000
     The SCF correction term to forces
     atom    1 type  2   force =     0.00004506    0.00003670    0.00004016
     atom    2 type  1   force =     0.00000425   -0.00001368   -0.00002072
     atom    3 type  1   force =     0.00000407   -0.00001408    0.00002211

     Total force =     0.031824     Total SCF correction =     0.000080


     Computing stress (Cartesian axis) and pressure


     negative rho (up, down):  3.531E-03 0.000E+00
          total   stress  (Ry/bohr**3)                   (kbar)     P=       -1.63
  -0.00001513  -0.00000123  -0.00000011           -2.23       -0.18       -0.02
  -0.00000123  -0.00000608   0.00000045           -0.18       -0.89        0.07
  -0.00000011   0.00000045  -0.00001204           -0.02        0.07       -1.77


     Entering Dynamics:    iteration =     5
                           time      =   0.0048 pico-seconds


ATOMIC_POSITIONS (angstrom)
O             5.0094812310        4.8048698315        4.9953514805
H             4.9141243531        5.3213174494        5.8299425572
H             4.9354666166        5.4188939608        4.2433555274


     kinetic energy (Ekin) =           0.00492271 Ry
     temperature           =         259.07803642 K 
     Ekin + Etot (const)   =         -44.02467899 Ry
     Ions kinetic stress =            0.14 (kbar)
                                      0.20          -0.01          -0.16
                                     -0.01           0.04          -0.05
                                     -0.16          -0.05           0.19



     Linear momentum :    0.0000000000   -0.0000000000    0.0000000000

     Writing config-only to output data dir ./tmp/h2o.save/

     second order wave-functions extrapolation
     second order charge density extrapolation

     Check: negative core charge=   -0.000003

     negative rho (up, down):  3.485E-03 0.000E+00

     total cpu time spent up to now is       27.2 secs

     Self-consistent Calculation

     iteration #  1     ecut=    40.00 Ry     beta= 0.70
     Davidson diagonalization with overlap
     ethr =  1.00E-06,  avg # of iterations =  3.0

     Threshold (ethr) on eigenvalues was too large:
     Diagonalizing with lowered threshold

     Davidson diagonalization with overlap
     ethr =  2.00E-08,  avg # of iterations =  2.0

     negative rho (up, down):  3.485E-03 0.000E+00

     total cpu time spent up to now is       27.9 secs

     total energy              =     -44.02911677 Ry
     estimated scf accuracy    <       0.00000182 Ry

     iteration #  2     ecut=    40.00 Ry     beta= 0.70
     Davidson diagonalization with overlap
     ethr =  2.28E-08,  avg # of iterations =  2.0

     negative rho (up, down):  3.484E-03 0.000E+00

     total cpu time spent up to now is       28.2 secs

     total energy              =     -44.02911699 Ry
     estimated scf accuracy    <       0.00000021 Ry

     iteration #  3     ecut=    40.00 Ry     beta= 0.70
     Davidson diagonalization with overlap
     ethr =  2.58E-09,  avg # of iterations =  2.0

     negative rho (up, down):  3.484E-03 0.000E+00

     total cpu time spent up to now is       28.5 secs

     total energy              =     -44.02911704 Ry
     estimated scf accuracy    <       0.00000007 Ry

     iteration #  4     ecut=    40.00 Ry     beta= 0.70
     Davidson diagonalization with overlap
     ethr =  8.41E-10,  avg # of iterations =  2.0

     negative rho (up, down):  3.484E-03 0.000E+00

     total cpu time spent up to now is       28.8 secs

     End of self-consistent calculation

          k = 0.0000 0.0000 0.0000 ( 14363 PWs)   bands (ev):

   -24.8625 -12.9335  -8.8462  -6.9322

     highest occupied level (ev):    -6.9322

!    total energy              =     -44.02911705 Ry
     estimated scf accuracy    <          8.0E-10 Ry

     convergence has been achieved in   4 iterations

     negative rho (up, down):  3.484E-03 0.000E+00

     Forces acting on atoms (cartesian axes, Ry/au):

     atom    1 type  2   force =    -0.00008940   -0.00176941    0.01846119
     atom    2 type  1   force =     0.00131542   -0.00443687   -0.03144925
     atom    3 type  1   force =    -0.00122602    0.00620628    0.01298805
     The non-local contrib.  to forces
     atom    1 type  2   force =    -0.35465141    2.36991238    0.14790401
     atom    2 type  1   force =     0.00998787   -0.05301058   -0.09480787
     atom    3 type  1   force =     0.00804487   -0.06821269    0.09123510
     The ionic contribution  to forces
     atom    1 type  2   force =     0.59919862   -4.01450632   -0.18462365
     atom    2 type  1   force =    -0.33458341    1.78276391    3.11400726
     atom    3 type  1   force =    -0.26461521    2.23174241   -2.92938361
     The local contribution  to forces
     atom    1 type  2   force =    -0.24821937    1.66670791    0.05692138
     atom    2 type  1   force =     0.32591397   -1.73419233   -3.05065388
     atom    3 type  1   force =     0.25534699   -2.15732256    2.85112814
     The core correction contribution to forces
     atom    1 type  2   force =     0.00357634   -0.02388771   -0.00172237
     atom    2 type  1   force =     0.00000000    0.00000000    0.00000000
     atom    3 type  1   force =     0.00000000    0.00000000    0.00000000
     The Hubbard contrib.    to forces
     atom    1 type  2   force =     0.00000000    0.00000000    0.00000000
     atom    2 type  1   force =     0.00000000    0.00000000    0.00000000
     atom    3 type  1   force =     0.00000000    0.00000000    0.00000000
     The SCF correction term to forces
     atom    1 type  2   force =     0.00001061    0.00000082   -0.00002507
     atom    2 type  1   force =     0.00000119   -0.00000138   -0.00000167
     atom    3 type  1   force =     0.00000153   -0.00000438    0.00000151

     Total force =     0.039537     Total SCF correction =     0.000028


     Computing stress (Cartesian axis) and pressure


     negative rho (up, down):  3.484E-03 0.000E+00
          total   stress  (Ry/bohr**3)                   (kbar)     P=       -2.88
  -0.00001498  -0.00000037   0.00000105           -2.20       -0.06        0.15
  -0.00000037  -0.00001294  -0.00000468           -0.06       -1.90       -0.69
   0.00000105  -0.00000468  -0.00003090            0.15       -0.69       -4.55


     Entering Dynamics:    iteration =     6
                           time      =   0.0058 pico-seconds


ATOMIC_POSITIONS (angstrom)
O             5.0114716324        4.8044774576        4.9942298698
H             4.8962761489        5.3157701861        5.8449166219
H             4.9217181061        5.4306699802        4.2461865203


     kinetic energy (Ekin) =           0.00448894 Ry
     temperature           =         236.24906903 K 
     Ekin + Etot (const)   =         -44.02462811 Ry
     Ions kinetic stress =            0.13 (kbar)
                                      0.20          -0.03          -0.14
                                     -0.03           0.05          -0.03
                                     -0.14          -0.03           0.13



     Linear momentum :   -0.0000000000   -0.0000000000    0.0000000000

     Writing config-only to output data dir ./tmp/h2o.save/

     second order wave-functions extrapolation
     second order charge density extrapolation

     Check: negative core charge=   -0.000003

     negative rho (up, down):  3.455E-03 0.000E+00

     total cpu time spent up to now is       31.2 secs

     Self-consistent Calculation

     iteration #  1     ecut=    40.00 Ry     beta= 0.70
     Davidson diagonalization with overlap
     ethr =  1.00E-06,  avg # of iterations =  3.0

     negative rho (up, down):  3.457E-03 0.000E+00

     total cpu time spent up to now is       31.8 secs

     total energy              =     -44.02809362 Ry
     estimated scf accuracy    <       0.00001281 Ry

     iteration #  2     ecut=    40.00 Ry     beta= 0.70
     Davidson diagonalization with overlap
     ethr =  1.60E-07,  avg # of iterations =  2.0

     negative rho (up, down):  3.452E-03 0.000E+00

     total cpu time spent up to now is       32.1 secs

     total energy              =     -44.02809618 Ry
     estimated scf accuracy    <       0.00000400 Ry

     iteration #  3     ecut=    40.00 Ry     beta= 0.70
     Davidson diagonalization with overlap
     ethr =  5.00E-08,  avg # of iterations =  2.0

     negative rho (up, down):  3.450E-03 0.000E+00

     total cpu time spent up to now is       32.5 secs

     total energy              =     -44.02809711 Ry
     estimated scf accuracy    <       0.00000019 Ry

     iteration #  4     ecut=    40.00 Ry     beta= 0.70
     Davidson diagonalization with overlap
     ethr =  2.36E-09,  avg # of iterations =  1.0

     negative rho (up, down):  3.450E-03 0.000E+00

     total cpu time spent up to now is       32.8 secs

     total energy              =     -44.02809712 Ry
     estimated scf accuracy    <       0.00000002 Ry

     iteration #  5     ecut=    40.00 Ry     beta= 0.70
     Davidson diagonalization with overlap
     ethr =  2.23E-10,  avg # of iterations =  3.0

     negative rho (up, down):  3.450E-03 0.000E+00

     total cpu time spent up to now is       33.3 secs

     End of self-consistent calculation

          k = 0.0000 0.0000 0.0000 ( 14363 PWs)   bands (ev):

   -24.7654 -12.8341  -8.8417  -6.9124

     highest occupied level (ev):    -6.9124

!    total energy              =     -44.02809712 Ry
     estimated scf accuracy    <          2.4E-09 Ry

     convergence has been achieved in   5 iterations

     negative rho (up, down):  3.450E-03 0.000E+00

     Forces acting on atoms (cartesian axes, Ry/au):

     atom    1 type  2   force =    -0.00344232    0.01512142    0.02854212
     atom    2 type  1   force =     0.00399564   -0.01473629   -0.04994379
     atom    3 type  1   force =    -0.00055333   -0.00038513    0.02140167
     The non-local contrib.  to forces
     atom    1 type  2   force =    -0.42430172    2.36035822    0.17280939
     atom    2 type  1   force =     0.01133189   -0.04916337   -0.09090940
     atom    3 type  1   force =     0.00948358   -0.06767988    0.08829066
     The ionic contribution  to forces
     atom    1 type  2   force =     0.70344767   -3.92930797   -0.18887908
     atom    2 type  1   force =    -0.38839213    1.69336440    3.05030538
     atom    3 type  1   force =    -0.31505554    2.23594357   -2.86142630
     The local contribution  to forces
     atom    1 type  2   force =    -0.28691338    1.60814832    0.04672794
     atom    2 type  1   force =     0.38105487   -1.65892733   -3.00933517
     atom    3 type  1   force =     0.30501806   -2.16863489    2.79452454
     The core correction contribution to forces
     atom    1 type  2   force =     0.00432891   -0.02404172   -0.00209449
     atom    2 type  1   force =     0.00000000    0.00000000    0.00000000
     atom    3 type  1   force =     0.00000000    0.00000000    0.00000000
     The Hubbard contrib.    to forces
     atom    1 type  2   force =     0.00000000    0.00000000    0.00000000
     atom    2 type  1   force =     0.00000000    0.00000000    0.00000000
     atom    3 type  1   force =     0.00000000    0.00000000    0.00000000
     The SCF correction term to forces
     atom    1 type  2   force =    -0.00000277   -0.00003332   -0.00002705
     atom    2 type  1   force =     0.00000204   -0.00000789   -0.00001001
     atom    3 type  1   force =     0.00000161   -0.00001183    0.00000735

     Total force =     0.065124     Total SCF correction =     0.000047


     Computing stress (Cartesian axis) and pressure


     negative rho (up, down):  3.450E-03 0.000E+00
          total   stress  (Ry/bohr**3)                   (kbar)     P=       -3.74
  -0.00001509   0.00000053   0.00000203           -2.22        0.08        0.30
   0.00000053  -0.00001798  -0.00000686            0.08       -2.64       -1.01
   0.00000203  -0.00000686  -0.00004323            0.30       -1.01       -6.36


     Entering Dynamics:    iteration =     7
                           time      =   0.0068 pico-seconds


ATOMIC_POSITIONS (angstrom)
O             5.0134120662        4.8043045818        4.9935225681
H             4.8793486617        5.3068272364        5.8483821286
H             4.9078420926        5.4423572548        4.2539491045


     kinetic energy (Ekin) =           0.00357624 Ry
     temperature           =         188.21480510 K 
     Ekin + Etot (const)   =         -44.02452088 Ry
     Ions kinetic stress =            0.10 (kbar)
                                      0.20          -0.02          -0.09
                                     -0.02           0.07          -0.00
                                     -0.09          -0.00           0.05



     Linear momentum :   -0.0000000000    0.0000000000    0.0000000000

     Writing config-only to output data dir ./tmp/h2o.save/

     second order wave-functions extrapolation
     second order charge density extrapolation

     Check: negative core charge=   -0.000003

     negative rho (up, down):  3.443E-03 0.000E+00

     total cpu time spent up to now is       35.4 secs

     Self-consistent Calculation

     iteration #  1     ecut=    40.00 Ry     beta= 0.70
     Davidson diagonalization with overlap
     ethr =  1.00E-06,  avg # of iterations =  3.0

     Threshold (ethr) on eigenvalues was too large:
     Diagonalizing with lowered threshold

     Davidson diagonalization with overlap
     ethr =  6.27E-08,  avg # of iterations =  1.0

     negative rho (up, down):  3.447E-03 0.000E+00

     total cpu time spent up to now is       36.0 secs

     total energy              =     -44.02810660 Ry
     estimated scf accuracy    <       0.00000512 Ry

     iteration #  2     ecut=    40.00 Ry     beta= 0.70
     Davidson diagonalization with overlap
     ethr =  6.40E-08,  avg # of iterations =  2.0

     negative rho (up, down):  3.443E-03 0.000E+00

     total cpu time spent up to now is       36.3 secs

     total energy              =     -44.02810805 Ry
     estimated scf accuracy    <       0.00000350 Ry

     iteration #  3     ecut=    40.00 Ry     beta= 0.70
     Davidson diagonalization with overlap
     ethr =  4.37E-08,  avg # of iterations =  2.0

     negative rho (up, down):  3.441E-03 0.000E+00

     total cpu time spent up to now is       36.8 secs

     total energy              =     -44.02810860 Ry
     estimated scf accuracy    <       0.00000009 Ry

     iteration #  4     ecut=    40.00 Ry     beta= 0.70
     Davidson diagonalization with overlap
     ethr =  1.10E-09,  avg # of iterations =  3.0

     negative rho (up, down):  3.442E-03 0.000E+00

     total cpu time spent up to now is       37.3 secs

     total energy              =     -44.02810863 Ry
     estimated scf accuracy    <       0.00000007 Ry

     iteration #  5     ecut=    40.00 Ry     beta= 0.70
     Davidson diagonalization with overlap
     ethr =  8.86E-10,  avg # of iterations =  2.0

     negative rho (up, down):  3.442E-03 0.000E+00

     total cpu time spent up to now is       37.8 secs

     total energy              =     -44.02810863 Ry
     estimated scf accuracy    <       0.00000001 Ry

     iteration #  6     ecut=    40.00 Ry     beta= 0.70
     Davidson diagonalization with overlap
     ethr =  1.31E-10,  avg # of iterations =  3.0

     negative rho (up, down):  3.442E-03 0.000E+00

     total cpu time spent up to now is       38.4 secs

     End of self-consistent calculation

          k = 0.0000 0.0000 0.0000 ( 14363 PWs)   bands (ev):

   -24.7528 -12.7881  -8.8677  -6.9109

     highest occupied level (ev):    -6.9109

!    total energy              =     -44.02810864 Ry
     estimated scf accuracy    <          1.5E-09 Ry

     convergence has been achieved in   6 iterations

     negative rho (up, down):  3.442E-03 0.000E+00

     Forces acting on atoms (cartesian axes, Ry/au):

     atom    1 type  2   force =    -0.00519022    0.02086623    0.02693848
     atom    2 type  1   force =     0.00508540   -0.01622657   -0.05073948
     atom    3 type  1   force =     0.00010482   -0.00463966    0.02380100
     The non-local contrib.  to forces
     atom    1 type  2   force =    -0.49315556    2.35257851    0.20037706
     atom    2 type  1   force =     0.01311859   -0.04800458   -0.09065084
     atom    3 type  1   force =     0.01103761   -0.06825226    0.08618645
     The ionic contribution  to forces
     atom    1 type  2   force =     0.81743199   -3.91522912   -0.24266278
     atom    2 type  1   force =    -0.44989748    1.65383840    3.05211466
     atom    3 type  1   force =    -0.36753451    2.26139072   -2.80945187
     The local contribution  to forces
     atom    1 type  2   force =    -0.33451240    1.60755449    0.07158999
     atom    2 type  1   force =     0.44186507   -1.62204785   -3.01219973
     atom    3 type  1   force =     0.35660247   -2.19776345    2.74705488
     The core correction contribution to forces
     atom    1 type  2   force =     0.00503919   -0.02399174   -0.00235342
     atom    2 type  1   force =     0.00000000    0.00000000    0.00000000
     atom    3 type  1   force =     0.00000000    0.00000000    0.00000000
     The Hubbard contrib.    to forces
     atom    1 type  2   force =     0.00000000    0.00000000    0.00000000
     atom    2 type  1   force =     0.00000000    0.00000000    0.00000000
     atom    3 type  1   force =     0.00000000    0.00000000    0.00000000
     The SCF correction term to forces
     atom    1 type  2   force =     0.00000926   -0.00004131   -0.00001743
     atom    2 type  1   force =     0.00000191   -0.00000794   -0.00000861
     atom    3 type  1   force =     0.00000195   -0.00001007    0.00000649

     Total force =     0.068115     Total SCF correction =     0.000049


     Computing stress (Cartesian axis) and pressure


     negative rho (up, down):  3.442E-03 0.000E+00
          total   stress  (Ry/bohr**3)                   (kbar)     P=       -3.90
  -0.00001520   0.00000098   0.00000226           -2.24        0.14        0.33
   0.00000098  -0.00001978  -0.00000588            0.14       -2.91       -0.86
   0.00000226  -0.00000588  -0.00004459            0.33       -0.86       -6.56


     Entering Dynamics:    iteration =     8
                           time      =   0.0077 pico-seconds


ATOMIC_POSITIONS (angstrom)
O             5.0152771603        4.8044345940        4.9932062975
H             4.8635930045        5.2941451953        5.8401557263
H             4.8939902321        5.4529754111        4.2671961587


     kinetic energy (Ekin) =           0.00360102 Ry
     temperature           =         189.51878787 K 
     Ekin + Etot (const)   =         -44.02450762 Ry
     Ions kinetic stress =            0.10 (kbar)
                                      0.18           0.01          -0.04
                                      0.01           0.09           0.05
                                     -0.04           0.05           0.04



     Linear momentum :   -0.0000000000    0.0000000000    0.0000000000

     Writing config-only to output data dir ./tmp/h2o.save/

     second order wave-functions extrapolation
     second order charge density extrapolation

     Check: negative core charge=   -0.000003

     negative rho (up, down):  3.462E-03 0.000E+00

     total cpu time spent up to now is       40.7 secs

     Self-consistent Calculation

     iteration #  1     ecut=    40.00 Ry     beta= 0.70
     Davidson diagonalization with overlap
     ethr =  1.00E-06,  avg # of iterations =  3.0

     Threshold (ethr) on eigenvalues was too large:
     Diagonalizing with lowered threshold

     Davidson diagonalization with overlap
     ethr =  6.94E-09,  avg # of iterations =  3.0

     negative rho (up, down):  3.463E-03 0.000E+00

     total cpu time spent up to now is       41.4 secs

     total energy              =     -44.02934808 Ry
     estimated scf accuracy    <       0.00000068 Ry

     iteration #  2     ecut=    40.00 Ry     beta= 0.70
     Davidson diagonalization with overlap
     ethr =  8.47E-09,  avg # of iterations =  2.0

     negative rho (up, down):  3.462E-03 0.000E+00

     total cpu time spent up to now is       41.9 secs

     total energy              =     -44.02934820 Ry
     estimated scf accuracy    <       0.00000023 Ry

     iteration #  3     ecut=    40.00 Ry     beta= 0.70
     Davidson diagonalization with overlap
     ethr =  2.93E-09,  avg # of iterations =  2.0

     negative rho (up, down):  3.461E-03 0.000E+00

     total cpu time spent up to now is       42.4 secs

     total energy              =     -44.02934826 Ry
     estimated scf accuracy    <       0.00000001 Ry

     iteration #  4     ecut=    40.00 Ry     beta= 0.70
     Davidson diagonalization with overlap
     ethr =  1.70E-10,  avg # of iterations =  2.0

     negative rho (up, down):  3.462E-03 0.000E+00

     total cpu time spent up to now is       42.8 secs

     End of self-consistent calculation

          k = 0.0000 0.0000 0.0000 ( 14363 PWs)   bands (ev):

   -24.8314 -12.8025  -8.9227  -6.9287

     highest occupied level (ev):    -6.9287

!    total energy              =     -44.02934826 Ry
     estimated scf accuracy    <          1.3E-09 Ry

     convergence has been achieved in   4 iterations

     negative rho (up, down):  3.462E-03 0.000E+00

     Forces acting on atoms (cartesian axes, Ry/au):

     atom    1 type  2   force =    -0.00398658    0.01468658    0.01434634
     atom    2 type  1   force =     0.00358123   -0.00939486   -0.03354347
     atom    3 type  1   force =     0.00040535   -0.00529173    0.01919713
     The non-local contrib.  to forces
     atom    1 type  2   force =    -0.56210298    2.34619671    0.23099345
     atom    2 type  1   force =     0.01566423   -0.04937505   -0.09417910
     atom    3 type  1   force =     0.01282863   -0.07015563    0.08516530
     The ionic contribution  to forces
     atom    1 type  2   force =     0.94977312   -3.97297037   -0.34507684
     atom    2 type  1   force =    -0.52547552    1.66074319    3.12332573
     atom    3 type  1   force =    -0.42429761    2.31222719   -2.77824889
     The local contribution  to forces
     atom    1 type  2   force =    -0.39734399    1.66515219    0.13090150
     atom    2 type  1   force =     0.51339804   -1.62076937   -3.06269846
     atom    3 type  1   force =     0.41187985   -2.24737317    2.71228557
     The core correction contribution to forces
     atom    1 type  2   force =     0.00569163   -0.02372262   -0.00250790
     atom    2 type  1   force =     0.00000000    0.00000000    0.00000000
     atom    3 type  1   force =     0.00000000    0.00000000    0.00000000
     The Hubbard contrib.    to forces
     atom    1 type  2   force =     0.00000000    0.00000000    0.00000000
     atom    2 type  1   force =     0.00000000    0.00000000    0.00000000
     atom    3 type  1   force =     0.00000000    0.00000000    0.00000000
     The SCF correction term to forces
     atom    1 type  2   force =    -0.00000014    0.00002993    0.00003515
     atom    2 type  1   force =    -0.00000130    0.00000563    0.00000738
     atom    3 type  1   force =    -0.00000130    0.00000914   -0.00000582

     Total force =     0.045391     Total SCF correction =     0.000048


     Computing stress (Cartesian axis) and pressure


     negative rho (up, down):  3.462E-03 0.000E+00
          total   stress  (Ry/bohr**3)                   (kbar)     P=       -3.31
  -0.00001511   0.00000058   0.00000140           -2.22        0.09        0.21
   0.00000058  -0.00001808  -0.00000239            0.09       -2.66       -0.35
   0.00000140  -0.00000239  -0.00003434            0.21       -0.35       -5.05


     Entering Dynamics:    iteration =     9
                           time      =   0.0087 pico-seconds


ATOMIC_POSITIONS (angstrom)
O             5.0170843864        4.8047777924        4.9930982741
H             4.8486625705        5.2792982954        5.8241998953
H             4.8802317765        5.4623741935        4.2848668114


     kinetic energy (Ekin) =           0.00473976 Ry
     temperature           =         249.44942894 K 
     Ekin + Etot (const)   =         -44.02460850 Ry
     Ions kinetic stress =            0.14 (kbar)
                                      0.17           0.03          -0.01
                                      0.03           0.10           0.11
                                     -0.01           0.11           0.14



     Linear momentum :    0.0000000000    0.0000000000    0.0000000000

     Writing config-only to output data dir ./tmp/h2o.save/

     second order wave-functions extrapolation
     second order charge density extrapolation

     Check: negative core charge=   -0.000003

     negative rho (up, down):  3.500E-03 0.000E+00

     total cpu time spent up to now is       45.0 secs

     Self-consistent Calculation

     iteration #  1     ecut=    40.00 Ry     beta= 0.70
     Davidson diagonalization with overlap
     ethr =  1.00E-06,  avg # of iterations =  3.0

     Threshold (ethr) on eigenvalues was too large:
     Diagonalizing with lowered threshold

     Davidson diagonalization with overlap
     ethr =  4.83E-09,  avg # of iterations =  3.0

     negative rho (up, down):  3.501E-03 0.000E+00

     total cpu time spent up to now is       45.7 secs

     total energy              =     -44.03032020 Ry
     estimated scf accuracy    <       0.00000046 Ry

     iteration #  2     ecut=    40.00 Ry     beta= 0.70
     Davidson diagonalization with overlap
     ethr =  5.72E-09,  avg # of iterations =  2.0

     negative rho (up, down):  3.501E-03 0.000E+00

     total cpu time spent up to now is       46.2 secs

     total energy              =     -44.03032027 Ry
     estimated scf accuracy    <       0.00000006 Ry

     iteration #  3     ecut=    40.00 Ry     beta= 0.70
     Davidson diagonalization with overlap
     ethr =  7.89E-10,  avg # of iterations =  2.0

     negative rho (up, down):  3.501E-03 0.000E+00

     total cpu time spent up to now is       46.6 secs

     total energy              =     -44.03032029 Ry
     estimated scf accuracy    <       0.00000002 Ry

     iteration #  4     ecut=    40.00 Ry     beta= 0.70
     Davidson diagonalization with overlap
     ethr =  2.24E-10,  avg # of iterations =  2.0

     negative rho (up, down):  3.501E-03 0.000E+00

     total cpu time spent up to now is       46.9 secs

     End of self-consistent calculation

          k = 0.0000 0.0000 0.0000 ( 14363 PWs)   bands (ev):

   -24.9782 -12.8551  -8.9992  -6.9596

     highest occupied level (ev):    -6.9596

!    total energy              =     -44.03032029 Ry
     estimated scf accuracy    <          1.5E-10 Ry

     convergence has been achieved in   4 iterations

     negative rho (up, down):  3.501E-03 0.000E+00

     Forces acting on atoms (cartesian axes, Ry/au):

     atom    1 type  2   force =     0.00078504   -0.00122857   -0.00680212
     atom    2 type  1   force =    -0.00093955    0.00359964   -0.00192422
     atom    3 type  1   force =     0.00015451   -0.00237107    0.00872635
     The non-local contrib.  to forces
     atom    1 type  2   force =    -0.63173970    2.34020700    0.26230700
     atom    2 type  1   force =     0.01908149   -0.05255049   -0.10051413
     atom    3 type  1   force =     0.01490869   -0.07320562    0.08496556
     The ionic contribution  to forces
     atom    1 type  2   force =     1.10324637   -4.08291637   -0.48059100
     atom    2 type  1   force =    -0.61697284    1.69818106    3.24319676
     atom    3 type  1   force =    -0.48627353    2.38473531   -2.76260576
     The local contribution  to forces
     atom    1 type  2   force =    -0.47699738    1.76476035    0.21403771
     atom    2 type  1   force =     0.59695695   -1.64203240   -3.14461272
     atom    3 type  1   force =     0.47152460   -2.31390342    2.68636164
     The core correction contribution to forces
     atom    1 type  2   force =     0.00628421   -0.02328283   -0.00256712
     atom    2 type  1   force =     0.00000000    0.00000000    0.00000000
     atom    3 type  1   force =     0.00000000    0.00000000    0.00000000
     The Hubbard contrib.    to forces
     atom    1 type  2   force =     0.00000000    0.00000000    0.00000000
     atom    2 type  1   force =     0.00000000    0.00000000    0.00000000
     atom    3 type  1   force =     0.00000000    0.00000000    0.00000000
     The SCF correction term to forces
     atom    1 type  2   force =    -0.00000350    0.00000150    0.00000490
     atom    2 type  1   force =    -0.00000020   -0.00000031   -0.00000052
     atom    3 type  1   force =    -0.00000030    0.00000089   -0.00000148

     Total force =     0.012155     Total SCF correction =     0.000006


     Computing stress (Cartesian axis) and pressure


     negative rho (up, down):  3.501E-03 0.000E+00
          total   stress  (Ry/bohr**3)                   (kbar)     P=       -2.17
  -0.00001488  -0.00000078  -0.00000063           -2.19       -0.12       -0.09
  -0.00000078  -0.00001376   0.00000244           -0.12       -2.02        0.36
  -0.00000063   0.00000244  -0.00001552           -0.09        0.36       -2.28


     Entering Dynamics:    iteration =    10
                           time      =   0.0097 pico-seconds


ATOMIC_POSITIONS (angstrom)
O             5.0189030080        4.8051031571        4.9928915131
H             4.8335156354        5.2652808613        5.8078006656
H             4.8665089251        5.4712266106        4.3045482780


     kinetic energy (Ekin) =           0.00562325 Ry
     temperature           =         295.94714716 K 
     Ekin + Etot (const)   =         -44.02469704 Ry
     Ions kinetic stress =            0.16 (kbar)
                                      0.17           0.04          -0.01
                                      0.04           0.10           0.14
                                     -0.01           0.14           0.22



     Linear momentum :    0.0000000000    0.0000000000    0.0000000000

     Writing config-only to output data dir ./tmp/h2o.save/

     second order wave-functions extrapolation
     second order charge density extrapolation

     Check: negative core charge=   -0.000003

     negative rho (up, down):  3.541E-03 0.000E+00

     total cpu time spent up to now is       49.3 secs

     Self-consistent Calculation

     iteration #  1     ecut=    40.00 Ry     beta= 0.70
     Davidson diagonalization with overlap
     ethr =  1.00E-06,  avg # of iterations =  3.0

     Threshold (ethr) on eigenvalues was too large:
     Diagonalizing with lowered threshold

     Davidson diagonalization with overlap
     ethr =  1.04E-08,  avg # of iterations =  3.0

     negative rho (up, down):  3.542E-03 0.000E+00

     total cpu time spent up to now is       49.9 secs

     total energy              =     -44.02979076 Ry
     estimated scf accuracy    <       0.00000096 Ry

     iteration #  2     ecut=    40.00 Ry     beta= 0.70
     Davidson diagonalization with overlap
     ethr =  1.20E-08,  avg # of iterations =  1.0

     negative rho (up, down):  3.542E-03 0.000E+00

     total cpu time spent up to now is       50.2 secs

     total energy              =     -44.02979089 Ry
     estimated scf accuracy    <       0.00000007 Ry

     iteration #  3     ecut=    40.00 Ry     beta= 0.70
     Davidson diagonalization with overlap
     ethr =  8.69E-10,  avg # of iterations =  2.0

     negative rho (up, down):  3.543E-03 0.000E+00

     total cpu time spent up to now is       50.6 secs

     End of self-consistent calculation

          k = 0.0000 0.0000 0.0000 ( 14363 PWs)   bands (ev):

   -25.1393 -12.9014  -9.0856  -6.9929

     highest occupied level (ev):    -6.9929

!    total energy              =     -44.02979090 Ry
     estimated scf accuracy    <          4.0E-09 Ry

     convergence has been achieved in   3 iterations

     negative rho (up, down):  3.543E-03 0.000E+00

     Forces acting on atoms (cartesian axes, Ry/au):

     atom    1 type  2   force =     0.00760091   -0.01950208   -0.02854951
     atom    2 type  1   force =    -0.00710432    0.01696409    0.03282087
     atom    3 type  1   force =    -0.00049659    0.00253799   -0.00427135
     The non-local contrib.  to forces
     atom    1 type  2   force =    -0.70199877    2.33359030    0.29187307
     atom    2 type  1   force =     0.02301745   -0.05592940   -0.10706729
     atom    3 type  1   force =     0.01720824   -0.07677897    0.08491393
     The ionic contribution  to forces
     atom    1 type  2   force =     1.26967775   -4.20293529   -0.61437251
     atom    2 type  1   force =    -0.71763544    1.73610244    3.36322359
     atom    3 type  1   force =    -0.55204230    2.46683285   -2.74885108
     The local contribution  to forces
     atom    1 type  2   force =    -0.56685890    1.87257567    0.29662000
     atom    2 type  1   force =     0.68751535   -1.66321035   -3.22336720
     atom    3 type  1   force =     0.53433816   -2.38751650    2.65965006
     The core correction contribution to forces
     atom    1 type  2   force =     0.00684808   -0.02280471   -0.00260722
     atom    2 type  1   force =     0.00000000    0.00000000    0.00000000
     atom    3 type  1   force =     0.00000000    0.00000000    0.00000000
     The Hubbard contrib.    to forces
     atom    1 type  2   force =     0.00000000    0.00000000    0.00000000
     atom    2 type  1   force =     0.00000000    0.00000000    0.00000000
     atom    3 type  1   force =     0.00000000    0.00000000    0.00000000
     The SCF correction term to forces
     atom    1 type  2   force =    -0.00007222    0.00008104   -0.00009087
     atom    2 type  1   force =    -0.00000665    0.00001049    0.00000376
     atom    3 type  1   force =    -0.00000566    0.00000970   -0.00001227

     Total force =     0.051900     Total SCF correction =     0.000143


     Computing stress (Cartesian axis) and pressure


     negative rho (up, down):  3.543E-03 0.000E+00
          total   stress  (Ry/bohr**3)                   (kbar)     P=       -0.89
  -0.00001430  -0.00000263  -0.00000317           -2.10       -0.39       -0.47
  -0.00000263  -0.00000874   0.00000651           -0.39       -1.29        0.96
  -0.00000317   0.00000651   0.00000490           -0.47        0.96        0.72


     Entering Dynamics:    iteration =    11
                           time      =   0.0106 pico-seconds


ATOMIC_POSITIONS (angstrom)
O             5.0208319620        4.8051454354        4.9922703357
H             4.8167316505        5.2551724658        5.7989643549
H             4.8526716450        5.4806638576        4.3232454959


     kinetic energy (Ekin) =           0.00516802 Ry
     temperature           =         271.98865774 K 
     Ekin + Etot (const)   =         -44.02462288 Ry
     Ions kinetic stress =            0.15 (kbar)
                                      0.18           0.03          -0.03
                                      0.03           0.08           0.12
                                     -0.03           0.12           0.19



     Linear momentum :    0.0000000000    0.0000000000    0.0000000000

     Writing config-only to output data dir ./tmp/h2o.save/

     second order wave-functions extrapolation
     second order charge density extrapolation

     Check: negative core charge=   -0.000003

     negative rho (up, down):  3.561E-03 0.000E+00

     total cpu time spent up to now is       53.0 secs

     Self-consistent Calculation

     iteration #  1     ecut=    40.00 Ry     beta= 0.70
     Davidson diagonalization with overlap
     ethr =  1.00E-06,  avg # of iterations =  3.0

     negative rho (up, down):  3.550E-03 0.000E+00

     total cpu time spent up to now is       53.4 secs

     total energy              =     -44.02881278 Ry
     estimated scf accuracy    <       0.00004266 Ry

     iteration #  2     ecut=    40.00 Ry     beta= 0.70
     Davidson diagonalization with overlap
     ethr =  5.33E-07,  avg # of iterations =  2.0

     negative rho (up, down):  3.560E-03 0.000E+00

     total cpu time spent up to now is       53.9 secs

     total energy              =     -44.02882413 Ry
     estimated scf accuracy    <       0.00002262 Ry

     iteration #  3     ecut=    40.00 Ry     beta= 0.70
     Davidson diagonalization with overlap
     ethr =  2.83E-07,  avg # of iterations =  2.0

     negative rho (up, down):  3.564E-03 0.000E+00

     total cpu time spent up to now is       54.4 secs

     total energy              =     -44.02882808 Ry
     estimated scf accuracy    <       0.00000028 Ry

     iteration #  4     ecut=    40.00 Ry     beta= 0.70
     Davidson diagonalization with overlap
     ethr =  3.50E-09,  avg # of iterations =  3.0

     negative rho (up, down):  3.563E-03 0.000E+00

     total cpu time spent up to now is       55.0 secs

     total energy              =     -44.02882817 Ry
     estimated scf accuracy    <       0.00000020 Ry

     iteration #  5     ecut=    40.00 Ry     beta= 0.70
     Davidson diagonalization with overlap
     ethr =  2.54E-09,  avg # of iterations =  2.0

     negative rho (up, down):  3.562E-03 0.000E+00

     total cpu time spent up to now is       55.5 secs

     End of self-consistent calculation

          k = 0.0000 0.0000 0.0000 ( 14363 PWs)   bands (ev):

   -25.2394 -12.8895  -9.1654  -7.0133

     highest occupied level (ev):    -7.0133

!    total energy              =     -44.02882819 Ry
     estimated scf accuracy    <          8.5E-09 Ry

     convergence has been achieved in   5 iterations

     negative rho (up, down):  3.562E-03 0.000E+00

     Forces acting on atoms (cartesian axes, Ry/au):

     atom    1 type  2   force =     0.01187507   -0.02802052   -0.03695208
     atom    2 type  1   force =    -0.01087065    0.02156997    0.05194743
     atom    3 type  1   force =    -0.00100443    0.00645055   -0.01499535
     The non-local contrib.  to forces
     atom    1 type  2   force =    -0.77231064    2.32618181    0.31995572
     atom    2 type  1   force =     0.02648068   -0.05720748   -0.11001387
     atom    3 type  1   force =     0.01950780   -0.07990438    0.08415661
     The ionic contribution  to forces
     atom    1 type  2   force =     1.42808118   -4.27735338   -0.69960658
     atom    2 type  1   force =    -0.81059141    1.73701822    3.41945710
     atom    3 type  1   force =    -0.61748976    2.54033516   -2.71985052
     The local contribution  to forces
     atom    1 type  2   force =    -0.65137513    1.94574765    0.34545530
     atom    2 type  1   force =     0.77322254   -1.65818142   -3.25748273
     atom    3 type  1   force =     0.59696193   -2.45391659    2.62067624
     The core correction contribution to forces
     atom    1 type  2   force =     0.00744391   -0.02247420   -0.00277746
     atom    2 type  1   force =     0.00000000    0.00000000    0.00000000
     atom    3 type  1   force =     0.00000000    0.00000000    0.00000000
     The Hubbard contrib.    to forces
     atom    1 type  2   force =     0.00000000    0.00000000    0.00000000
     atom    2 type  1   force =     0.00000000    0.00000000    0.00000000
     atom    3 type  1   force =     0.00000000    0.00000000    0.00000000
     The SCF correction term to forces
     atom    1 type  2   force =     0.00002617   -0.00007937    0.00001376
     atom    2 type  1   force =     0.00000796   -0.00001631   -0.00002027
     atom    3 type  1   force =     0.00000601   -0.00002060    0.00001512

     Total force =     0.076427     Total SCF correction =     0.000093


     Computing stress (Cartesian axis) and pressure


     negative rho (up, down):  3.562E-03 0.000E+00
          total   stress  (Ry/bohr**3)                   (kbar)     P=       -0.17
  -0.00001396  -0.00000378  -0.00000466           -2.05       -0.56       -0.68
  -0.00000378  -0.00000645   0.00000704           -0.56       -0.95        1.04
  -0.00000466   0.00000704   0.00001684           -0.68        1.04        2.48


     Entering Dynamics:    iteration =    12
                           time      =   0.0116 pico-seconds


ATOMIC_POSITIONS (angstrom)
O             5.0229332911        4.8047809760        4.9911127729
H             4.7974427399        5.2500344436        5.8020983014
H             4.8386029148        5.4915875057        4.3384873319


     kinetic energy (Ekin) =           0.00432710 Ry
     temperature           =         227.73187981 K 
     Ekin + Etot (const)   =         -44.02450109 Ry
     Ions kinetic stress =            0.13 (kbar)
                                      0.21          -0.00          -0.08
                                     -0.00           0.06           0.07
                                     -0.08           0.07           0.11



     Linear momentum :    0.0000000000    0.0000000000    0.0000000000

     Writing config-only to output data dir ./tmp/h2o.save/

     second order wave-functions extrapolation
     second order charge density extrapolation

     Check: negative core charge=   -0.000003

     negative rho (up, down):  3.548E-03 0.000E+00

     total cpu time spent up to now is       57.8 secs

     Self-consistent Calculation

     iteration #  1     ecut=    40.00 Ry     beta= 0.70
     Davidson diagonalization with overlap
     ethr =  1.00E-06,  avg # of iterations =  3.0

     Threshold (ethr) on eigenvalues was too large:
     Diagonalizing with lowered threshold

     Davidson diagonalization with overlap
     ethr =  1.82E-08,  avg # of iterations =  2.0

     negative rho (up, down):  3.548E-03 0.000E+00

     total cpu time spent up to now is       58.6 secs

     total energy              =     -44.02907884 Ry
     estimated scf accuracy    <       0.00000164 Ry

     iteration #  2     ecut=    40.00 Ry     beta= 0.70
     Davidson diagonalization with overlap
     ethr =  2.05E-08,  avg # of iterations =  2.0

     negative rho (up, down):  3.549E-03 0.000E+00

     total cpu time spent up to now is       58.9 secs

     total energy              =     -44.02907906 Ry
     estimated scf accuracy    <       0.00000011 Ry

     iteration #  3     ecut=    40.00 Ry     beta= 0.70
     Davidson diagonalization with overlap
     ethr =  1.35E-09,  avg # of iterations =  2.0

     negative rho (up, down):  3.548E-03 0.000E+00

     total cpu time spent up to now is       59.4 secs

     total energy              =     -44.02907907 Ry
     estimated scf accuracy    <       0.00000003 Ry

     iteration #  4     ecut=    40.00 Ry     beta= 0.70
     Davidson diagonalization with overlap
     ethr =  3.34E-10,  avg # of iterations =  2.0

     negative rho (up, down):  3.548E-03 0.000E+00

     total cpu time spent up to now is       59.9 secs

     End of self-consistent calculation

          k = 0.0000 0.0000 0.0000 ( 14363 PWs)   bands (ev):

   -25.2302 -12.7953  -9.2272  -7.0132

     highest occupied level (ev):    -7.0132

!    total energy              =     -44.02907908 Ry
     estimated scf accuracy    <          1.6E-09 Ry

     convergence has been achieved in   4 iterations

[...]
                                      0.05           0.02           0.02
                                     -0.01           0.02           0.30



     Linear momentum :   -0.0000000000   -0.0000000000   -0.0000000000

     Writing config-only to output data dir ./tmp/h2o.save/

     second order wave-functions extrapolation
     second order charge density extrapolation

     Check: negative core charge=   -0.000003

     negative rho (up, down):  3.478E-03 0.000E+00

     total cpu time spent up to now is      411.1 secs

     Self-consistent Calculation

     iteration #  1     ecut=    40.00 Ry     beta= 0.70
     Davidson diagonalization with overlap
     ethr =  1.00E-06,  avg # of iterations =  3.0

     negative rho (up, down):  3.482E-03 0.000E+00

     total cpu time spent up to now is      411.6 secs

     total energy              =     -44.02980821 Ry
     estimated scf accuracy    <       0.00000829 Ry

     iteration #  2     ecut=    40.00 Ry     beta= 0.70
     Davidson diagonalization with overlap
     ethr =  1.04E-07,  avg # of iterations =  2.0

     negative rho (up, down):  3.478E-03 0.000E+00

     total cpu time spent up to now is      412.1 secs

     total energy              =     -44.02981020 Ry
     estimated scf accuracy    <       0.00000316 Ry

     iteration #  3     ecut=    40.00 Ry     beta= 0.70
     Davidson diagonalization with overlap
     ethr =  3.95E-08,  avg # of iterations =  2.0

     negative rho (up, down):  3.478E-03 0.000E+00

     total cpu time spent up to now is      412.6 secs

     total energy              =     -44.02981088 Ry
     estimated scf accuracy    <       0.00000012 Ry

     iteration #  4     ecut=    40.00 Ry     beta= 0.70
     Davidson diagonalization with overlap
     ethr =  1.51E-09,  avg # of iterations =  2.0

     negative rho (up, down):  3.478E-03 0.000E+00

     total cpu time spent up to now is      413.2 secs

     total energy              =     -44.02981088 Ry
     estimated scf accuracy    <       0.00000001 Ry

     iteration #  5     ecut=    40.00 Ry     beta= 0.70
     Davidson diagonalization with overlap
     ethr =  1.41E-10,  avg # of iterations =  2.0

     negative rho (up, down):  3.478E-03 0.000E+00

     total cpu time spent up to now is      413.7 secs

     End of self-consistent calculation

          k = 0.0000 0.0000 0.0000 ( 14363 PWs)   bands (ev):

   -24.8766 -12.6290  -9.0898  -6.9427

     highest occupied level (ev):    -6.9427

!    total energy              =     -44.02981089 Ry
     estimated scf accuracy    <          6.7E-10 Ry

     convergence has been achieved in   5 iterations

     negative rho (up, down):  3.478E-03 0.000E+00

     Forces acting on atoms (cartesian axes, Ry/au):

     atom    1 type  2   force =    -0.01930267   -0.02279422   -0.01713550
     atom    2 type  1   force =     0.00640893    0.03000502    0.01372653
     atom    3 type  1   force =     0.01289374   -0.00721080    0.00340897
     The non-local contrib.  to forces
     atom    1 type  2   force =    -2.00506276   -0.77843086   -1.20372394
     atom    2 type  1   force =     0.01471083    0.09694336    0.04190791
     atom    3 type  1   force =     0.09151772   -0.05895511    0.02064625
     The ionic contribution  to forces
     atom    1 type  2   force =     3.47919198    1.29608021    2.06885783
     atom    2 type  1   force =    -0.47986284   -3.24622284   -1.39822479
     atom    3 type  1   force =    -2.99932914    1.95014263   -0.67063304
     The local contribution  to forces
     atom    1 type  2   force =    -1.51355703   -0.54846635   -0.89444131
     atom    2 type  1   force =     0.47156494    3.17928089    1.37004152
     atom    3 type  1   force =     2.92070464   -1.89839744    0.65339360
     The core correction contribution to forces
     atom    1 type  2   force =     0.02012559    0.00798258    0.01215191
     atom    2 type  1   force =     0.00000000    0.00000000    0.00000000
     atom    3 type  1   force =     0.00000000    0.00000000    0.00000000
     The Hubbard contrib.    to forces
     atom    1 type  2   force =     0.00000000    0.00000000    0.00000000
     atom    2 type  1   force =     0.00000000    0.00000000    0.00000000
     atom    3 type  1   force =     0.00000000    0.00000000    0.00000000
     The SCF correction term to forces
     atom    1 type  2   force =     0.00000466    0.00004156    0.00002076
     atom    2 type  1   force =     0.00000110    0.00000496    0.00000262
     atom    3 type  1   force =     0.00000563    0.00000047    0.00000291

     Total force =     0.050452     Total SCF correction =     0.000047


     Computing stress (Cartesian axis) and pressure


     negative rho (up, down):  3.478E-03 0.000E+00
          total   stress  (Ry/bohr**3)                   (kbar)     P=       -3.25
  -0.00001981  -0.00000039  -0.00000201           -2.91       -0.06       -0.30
  -0.00000039  -0.00002847  -0.00000499           -0.06       -4.19       -0.73
  -0.00000201  -0.00000499  -0.00001797           -0.30       -0.73       -2.64


     Entering Dynamics:    iteration =    98
                           time      =   0.0948 pico-seconds


ATOMIC_POSITIONS (angstrom)
O             5.0564327185        4.8902803872        5.0351062365
H             4.8920156636        4.0059926923        4.6084292009
H             4.2122418712        5.3783651281        4.8337802763


     kinetic energy (Ekin) =           0.00518407 Ry
     temperature           =         272.83339001 K 
     Ekin + Etot (const)   =         -44.02462682 Ry
     Ions kinetic stress =            0.15 (kbar)
                                      0.17           0.06          -0.02
                                      0.06           0.02          -0.03
                                     -0.02          -0.03           0.26



     Linear momentum :    0.0000000000   -0.0000000000    0.0000000000

     Writing config-only to output data dir ./tmp/h2o.save/

     second order wave-functions extrapolation
     second order charge density extrapolation

     Check: negative core charge=   -0.000003

     negative rho (up, down):  3.451E-03 0.000E+00

     total cpu time spent up to now is      415.5 secs

     Self-consistent Calculation

     iteration #  1     ecut=    40.00 Ry     beta= 0.70
     Davidson diagonalization with overlap
     ethr =  1.00E-06,  avg # of iterations =  3.0

     negative rho (up, down):  3.457E-03 0.000E+00

     total cpu time spent up to now is      416.0 secs

     total energy              =     -44.02878568 Ry
     estimated scf accuracy    <       0.00002874 Ry

     iteration #  2     ecut=    40.00 Ry     beta= 0.70
     Davidson diagonalization with overlap
     ethr =  3.59E-07,  avg # of iterations =  2.0

     negative rho (up, down):  3.449E-03 0.000E+00

     total cpu time spent up to now is      416.3 secs

     total energy              =     -44.02879369 Ry
     estimated scf accuracy    <       0.00001561 Ry

     iteration #  3     ecut=    40.00 Ry     beta= 0.70
     Davidson diagonalization with overlap
     ethr =  1.95E-07,  avg # of iterations =  2.0

     negative rho (up, down):  3.445E-03 0.000E+00

     total cpu time spent up to now is      416.6 secs

     total energy              =     -44.02879630 Ry
     estimated scf accuracy    <       0.00000015 Ry

     iteration #  4     ecut=    40.00 Ry     beta= 0.70
     Davidson diagonalization with overlap
     ethr =  1.89E-09,  avg # of iterations =  4.0

     negative rho (up, down):  3.446E-03 0.000E+00

     total cpu time spent up to now is      416.9 secs

     total energy              =     -44.02879636 Ry
     estimated scf accuracy    <       0.00000020 Ry

     iteration #  5     ecut=    40.00 Ry     beta= 0.70
     Davidson diagonalization with overlap
     ethr =  1.89E-09,  avg # of iterations =  2.0

     negative rho (up, down):  3.446E-03 0.000E+00

     total cpu time spent up to now is      417.2 secs

     End of self-consistent calculation

          k = 0.0000 0.0000 0.0000 ( 14363 PWs)   bands (ev):

   -24.8035 -12.4935  -9.1373  -6.9305

     highest occupied level (ev):    -6.9305

!    total energy              =     -44.02879639 Ry
     estimated scf accuracy    <          6.8E-09 Ry

     convergence has been achieved in   5 iterations

     negative rho (up, down):  3.446E-03 0.000E+00

     Forces acting on atoms (cartesian axes, Ry/au):

     atom    1 type  2   force =    -0.04231162   -0.01635065   -0.02624933
     atom    2 type  1   force =     0.00909610    0.03259980    0.01705010
     atom    3 type  1   force =     0.03321552   -0.01624915    0.00919924
     The non-local contrib.  to forces
     atom    1 type  2   force =    -1.99467091   -0.78353126   -1.24276304
     atom    2 type  1   force =     0.01419441    0.09452032    0.04403859
     atom    3 type  1   force =     0.08789321   -0.05433868    0.01955907
     The ionic contribution  to forces
     atom    1 type  2   force =     3.40527815    1.33809252    2.12185173
     atom    2 type  1   force =    -0.45585939   -3.18684306   -1.47496021
     atom    3 type  1   force =    -2.94941876    1.84875054   -0.64689152
     The local contribution  to forces
     atom    1 type  2   force =    -1.47309108   -0.57884019   -0.91791905
     atom    2 type  1   force =     0.45080376    3.12495415    1.44800345
     atom    3 type  1   force =     2.89479771   -1.81065992    0.63655902
     The core correction contribution to forces
     atom    1 type  2   force =     0.02025743    0.00794858    0.01263027
     atom    2 type  1   force =     0.00000000    0.00000000    0.00000000
     atom    3 type  1   force =     0.00000000    0.00000000    0.00000000
     The Hubbard contrib.    to forces
     atom    1 type  2   force =     0.00000000    0.00000000    0.00000000
     atom    2 type  1   force =     0.00000000    0.00000000    0.00000000
     atom    3 type  1   force =     0.00000000    0.00000000    0.00000000
     The SCF correction term to forces
     atom    1 type  2   force =    -0.00004920   -0.00000871   -0.00002766
     atom    2 type  1   force =    -0.00000667   -0.00002002   -0.00001015
     atom    3 type  1   force =    -0.00002063    0.00001050   -0.00000574

     Total force =     0.075065     Total SCF correction =     0.000066


     Computing stress (Cartesian axis) and pressure


     negative rho (up, down):  3.446E-03 0.000E+00
          total   stress  (Ry/bohr**3)                   (kbar)     P=       -3.95
  -0.00002941   0.00000372  -0.00000502           -4.33        0.55       -0.74
   0.00000372  -0.00003187  -0.00000495            0.55       -4.69       -0.73
  -0.00000502  -0.00000495  -0.00001934           -0.74       -0.73       -2.85


     Entering Dynamics:    iteration =    99
                           time      =   0.0958 pico-seconds


ATOMIC_POSITIONS (angstrom)
O             5.0567253396        4.8900482813        5.0363301109
H             4.8992907147        4.0209199932        4.5879909630
H             4.2003215935        5.3671224028        4.8347900671


     kinetic energy (Ekin) =           0.00425997 Ry
     temperature           =         224.19891962 K 
     Ekin + Etot (const)   =         -44.02453641 Ry
     Ions kinetic stress =            0.12 (kbar)
                                      0.10           0.08          -0.04
                                      0.08           0.08          -0.09
                                     -0.04          -0.09           0.19



     Linear momentum :    0.0000000000    0.0000000000   -0.0000000000

     Writing config-only to output data dir ./tmp/h2o.save/

     second order wave-functions extrapolation
     second order charge density extrapolation

     Check: negative core charge=   -0.000003

     negative rho (up, down):  3.450E-03 0.000E+00

     total cpu time spent up to now is      418.8 secs

     Self-consistent Calculation

     iteration #  1     ecut=    40.00 Ry     beta= 0.70
     Davidson diagonalization with overlap
     ethr =  1.00E-06,  avg # of iterations =  3.0

     Threshold (ethr) on eigenvalues was too large:
     Diagonalizing with lowered threshold

     Davidson diagonalization with overlap
     ethr =  3.66E-08,  avg # of iterations =  2.0

     negative rho (up, down):  3.447E-03 0.000E+00

     total cpu time spent up to now is      419.2 secs

     total energy              =     -44.02855430 Ry
     estimated scf accuracy    <       0.00000306 Ry

     iteration #  2     ecut=    40.00 Ry     beta= 0.70
     Davidson diagonalization with overlap
     ethr =  3.82E-08,  avg # of iterations =  2.0

     negative rho (up, down):  3.445E-03 0.000E+00

     total cpu time spent up to now is      419.5 secs

     total energy              =     -44.02855459 Ry
     estimated scf accuracy    <       0.00000024 Ry

     iteration #  3     ecut=    40.00 Ry     beta= 0.70
     Davidson diagonalization with overlap
     ethr =  3.01E-09,  avg # of iterations =  2.0

     negative rho (up, down):  3.445E-03 0.000E+00

     total cpu time spent up to now is      419.8 secs

     total energy              =     -44.02855461 Ry
     estimated scf accuracy    <       0.00000005 Ry

     iteration #  4     ecut=    40.00 Ry     beta= 0.70
     Davidson diagonalization with overlap
     ethr =  5.91E-10,  avg # of iterations =  2.0

     negative rho (up, down):  3.445E-03 0.000E+00

     total cpu time spent up to now is      420.1 secs

     End of self-consistent calculation

          k = 0.0000 0.0000 0.0000 ( 14363 PWs)   bands (ev):

   -24.8214 -12.4430  -9.1888  -6.9352

     highest occupied level (ev):    -6.9352

!    total energy              =     -44.02855462 Ry
     estimated scf accuracy    <          2.8E-09 Ry

     convergence has been achieved in   4 iterations

     negative rho (up, down):  3.445E-03 0.000E+00

     Forces acting on atoms (cartesian axes, Ry/au):

     atom    1 type  2   force =    -0.05074387   -0.00610525   -0.02672625
     atom    2 type  1   force =     0.01012496    0.02285701    0.01453711
     atom    3 type  1   force =     0.04061891   -0.01675176    0.01218914
     The non-local contrib.  to forces
     atom    1 type  2   force =    -1.98343939   -0.78729794   -1.28091206
     atom    2 type  1   force =     0.01402317    0.09499043    0.04750226
     atom    3 type  1   force =     0.08718308   -0.05180102    0.01911692
     The ionic contribution  to forces
     atom    1 type  2   force =     3.38643475    1.39371973    2.20836776
     atom    2 type  1   force =    -0.43524875   -3.18119348   -1.57520068
     atom    3 type  1   force =    -2.95118601    1.78747375   -0.63316708
     The local contribution  to forces
     atom    1 type  2   force =    -1.47391559   -0.62037484   -0.96715957
     atom    2 type  1   force =     0.43135041    3.10903985    1.54223003
     atom    3 type  1   force =     2.90461303   -1.75242577    0.62624024
     The core correction contribution to forces
     atom    1 type  2   force =     0.02017267    0.00783957    0.01296730
     atom    2 type  1   force =     0.00000000    0.00000000    0.00000000
     atom    3 type  1   force =     0.00000000    0.00000000    0.00000000
     The Hubbard contrib.    to forces
     atom    1 type  2   force =     0.00000000    0.00000000    0.00000000
     atom    2 type  1   force =     0.00000000    0.00000000    0.00000000
     atom    3 type  1   force =     0.00000000    0.00000000    0.00000000
     The SCF correction term to forces
     atom    1 type  2   force =     0.00000606    0.00000208    0.00001387
     atom    2 type  1   force =     0.00000249    0.00001404    0.00000904
     atom    3 type  1   force =     0.00001117   -0.00000489    0.00000260

     Total force =     0.079006     Total SCF correction =     0.000026


     Computing stress (Cartesian axis) and pressure


     negative rho (up, down):  3.445E-03 0.000E+00
          total   stress  (Ry/bohr**3)                   (kbar)     P=       -3.92
  -0.00003330   0.00000504  -0.00000621           -4.90        0.74       -0.91
   0.00000504  -0.00002720  -0.00000280            0.74       -4.00       -0.41
  -0.00000621  -0.00000280  -0.00001937           -0.91       -0.41       -2.85


     Entering Dynamics:    iteration =   100
                           time      =   0.0968 pico-seconds


ATOMIC_POSITIONS (angstrom)
O             5.0562813777        4.8897275534        5.0371660349
H             4.9088988627        4.0411142392        4.5709025137
H             4.1977611389        5.3520195657        4.8386086041


     kinetic energy (Ekin) =           0.00402506 Ry
     temperature           =         211.83569950 K 
     Ekin + Etot (const)   =         -44.02452956 Ry
     Ions kinetic stress =            0.12 (kbar)
                                      0.04           0.09          -0.06
                                      0.09           0.17          -0.13
                                     -0.06          -0.13           0.13



     Linear momentum :    0.0000000000    0.0000000000   -0.0000000000

     The maximum number of steps has been reached.

     End of molecular dynamics calculation

     diffusion coefficients :
     atom     1   D =       0.00000213 cm^2/s
     atom     2   D =       0.00056567 cm^2/s
     atom     3   D =       0.00017442 cm^2/s

     < D > =       0.00024741 cm^2/s

     Writing all to output data dir ./tmp/h2o.save/

     init_run     :      0.55s CPU      0.58s WALL (       1 calls)
     electrons    :    203.01s CPU    217.11s WALL (     100 calls)
     update_pot   :     45.40s CPU     48.84s WALL (      99 calls)
     forces       :     36.96s CPU     39.03s WALL (     100 calls)
     stress       :     89.95s CPU     95.01s WALL (     100 calls)

     Called by init_run:
     wfcinit      :      0.02s CPU      0.02s WALL (       1 calls)
     potinit      :      0.21s CPU      0.23s WALL (       1 calls)
     hinit0       :      0.21s CPU      0.21s WALL (       1 calls)

     Called by electrons:
     c_bands      :     31.67s CPU     34.03s WALL (     518 calls)
     sum_band     :     55.62s CPU     58.64s WALL (     518 calls)
     v_of_rho     :     41.87s CPU     46.01s WALL (     557 calls)
     newd         :     42.87s CPU     45.33s WALL (     557 calls)
     PAW_pot      :     60.85s CPU     64.29s WALL (     656 calls)
     mix_rho      :      3.47s CPU      3.65s WALL (     518 calls)

     Called by c_bands:
     init_us_2    :      3.09s CPU      3.16s WALL (    1234 calls)
     init_us_2:cp :      3.08s CPU      3.15s WALL (    1234 calls)
     cegterg      :     27.78s CPU     30.04s WALL (     518 calls)

     Called by *egterg:
     cdiaghg      :      0.10s CPU      0.10s WALL (    1511 calls)
     h_psi        :     25.29s CPU     27.39s WALL (    1672 calls)
     s_psi        :      0.27s CPU      0.28s WALL (    1770 calls)
     g_psi        :      0.45s CPU      0.46s WALL (    1153 calls)

     Called by h_psi:
     h_psi:calbec :      0.47s CPU      0.51s WALL (    1672 calls)
     vloc_psi     :     24.42s CPU     26.46s WALL (    1672 calls)
     add_vuspsi   :      0.26s CPU      0.27s WALL (    1672 calls)

     General routines
     calbec       :      0.94s CPU      1.09s WALL (    2985 calls)
     fft          :     38.41s CPU     47.23s WALL (    8787 calls)
     ffts         :      1.68s CPU      1.80s WALL (     518 calls)
     fftw         :     23.76s CPU     26.04s WALL (   14560 calls)
     davcio       :      0.02s CPU      0.02s WALL (     392 calls)

     Parallel routines

     PWSCF        :   6m35.45s CPU   7m 1.16s WALL


   This run was terminated on:   5:47:12  25Dec2023            

=------------------------------------------------------------------------------=
   JOB DONE.
=------------------------------------------------------------------------------=
