<UPF version="2.0.1">
<PP_INFO>
Generated by new atomic code, or converted to UPF format
Author:
Generation date:
Pseudopotential type: NC
Element: C
Functional:  SLA  LYP  B88  BLYP
Suggested minimum cutoff for wavefunctions:  50. Ry
Suggested minimum cutoff for charge density: 200. Ry
The Pseudo was generated with a Non-Relativistic Calculation
L component and cutoff radius for Local Potential:  0   0.0000
Valence configuration:
nl pn  l   occ       Rcut    Rcut US       E pseu
2S  0  0  2.00      1.230      0.000     0.000000
2P  0  1  2.00      0.000      0.000     0.000000
Generation configuration: not available.
</PP_INFO>
<!--
END OF HUMAN READABLE SECTION
-->
<PP_HEADER generated="Generated by new atomic code, or converted to UPF format" author="" date="" comment="" element="C " pseudo_type="NC" relativistic="no" is_ultrasoft="false" is_paw="false" is_coulomb="false" has_so="false" has_wfc="false" has_gipaw="false" paw_as_gipaw="false" core_correction="false" functional=" SLA  LYP  B88  BLYP" z_valence="4.000000000000e0" total_psenergy="0.000000000000e0" wfc_cutoff="5.000000000000e1" rho_cutoff="2.000000000000e2" l_max="0" l_max_rho="0" l_local="0" mesh_size="279" number_of_wfc="2" number_of_proj="1"/>
<PP_MESH dx="5.000000000000e-2" mesh="279" xmin="-7.999999999999e0" rmax="6.083957797760e1" zmesh="6.000000000000e0">
<PP_R>
5.591043798379999e-5 5.877702743800000e-5 6.179059007649999e-5 6.495866137550000e-5
6.828916316330000e-5 7.179042342929999e-5 7.547119714779999e-5 7.934068817040001e-5
8.340857224010000e-5 8.768502118600001e-5 9.218072835799999e-5 9.690693536560000e-5
1.018754601880000e-4 1.070987267260000e-4 1.125897958660000e-4 1.183623981400000e-4
1.244309680630000e-4 1.308106802180000e-4 1.375174872110000e-4 1.445681595510000e-4
1.519803275920000e-4 1.597725256160000e-4 1.679642381750000e-4 1.765759488180000e-4
1.856291913070000e-4 1.951466034650000e-4 2.051519837790000e-4 2.156703509110000e-4
2.267280062580000e-4 2.383525997180000e-4 2.505731988300000e-4 2.634203614560000e-4
2.769262121960000e-4 2.911245227100000e-4 3.060507961710000e-4 3.217423560380000e-4
3.382384393830000e-4 3.555802950060000e-4 3.738112865810001e-4 3.929770010820000e-4
4.131253627780000e-4 4.343067530680000e-4 4.565741364610000e-4 4.799831930150000e-4
5.045924575630000e-4 5.304634660850001e-4 5.576609095789999e-4 5.862527958189999e-4
6.163106194140001e-4 6.479095405790001e-4 6.811285730770001e-4 7.160507817920001e-4
7.527634904350000e-4 7.913584999020000e-4 8.319323178179999e-4 8.745863998640001e-4
9.194274034600001e-4 9.665674544740000e-4 1.016124427590000e-3 1.068222241040000e-3
1.122991166510000e-3 1.180568154840000e-3 1.241097178490000e-3 1.304729591540000e-3
1.371624508170000e-3 1.441949200520000e-3 1.515879516950000e-3 1.593600321760000e-3
1.675305957440000e-3 1.761200730640000e-3 1.851499423040000e-3 1.946427828400000e-3
2.046223317180000e-3 2.151135430080000e-3 2.261426502030000e-3 2.377372318170000e-3
2.499262803410000e-3 2.627402747480000e-3 2.762112566960000e-3 2.903729106580000e-3
3.052606481460000e-3 3.209116962560000e-3 3.373651907630000e-3 3.546622739730000e-3
3.728461976030000e-3 3.919624309330000e-3 4.120587745060000e-3 4.331854796460000e-3
4.553953741220001e-3 4.787439942370000e-3 5.032897237050000e-3 5.290939396340000e-3
5.562211660049999e-3 5.847392350140001e-3 6.147194566870001e-3 6.462367971950000e-3
6.793700663059999e-3 7.142021144510000e-3 7.508200398930000e-3 7.893154065190000e-3
8.297844727979999e-3 8.723284324740000e-3 9.170536676070000e-3 9.640720145810000e-3
1.013501043750000e-2 1.065464353450000e-2 1.120091879000000e-2 1.177520217670000e-2
1.237892970240000e-2 1.301361100020000e-2 1.368083310400000e-2 1.438226441660000e-2
1.511965888160000e-2 1.589486036930000e-2 1.670980728710000e-2 1.756653742700000e-2
1.846719306040000e-2 1.941402629560000e-2 2.040940470880000e-2 2.145581726460000e-2
2.255588053940000e-2 2.371234526440000e-2 2.492810320380000e-2 2.620619438560000e-2
2.754981470360000e-2 2.896232390840000e-2 3.044725400880000e-2 3.200831810350000e-2
3.364941966580000e-2 3.537466230450001e-2 3.718836002470000e-2 3.909504801560000e-2
4.109949399030000e-2 4.320671010760000e-2 4.542196550570000e-2 4.775079947670000e-2
5.019903531870000e-2 5.277279489650000e-2 5.547851394970000e-2 5.832295818520000e-2
6.131324019520000e-2 6.445683724240001e-2 6.776160995680001e-2 7.123582199150000e-2
7.488816068619998e-2 7.872775879020000e-2 8.276421729860001e-2 8.700762946020001e-2
9.146860601570001e-2 9.615830173010000e-2 1.010884432850000e-1 1.062713586040000e-1
1.117200076730000e-1 1.174480149530000e-1 1.234697034470000e-1 1.298001305120000e-1
1.364551255130000e-1 1.434513294040000e-1 1.508062363390000e-1 1.585382374170000e-1
1.666666666670000e-1 1.752118493960000e-1 1.841951530130000e-1 1.936390404550000e-1
2.035671263600000e-1 2.140042361150000e-1 2.249764679290000e-1 2.365112580990000e-1
2.486374496070000e-1 2.613853642480000e-1 2.747868784500000e-1 2.888755029780000e-1
3.036864667320000e-1 3.192568048360000e-1 3.356254512450000e-1 3.528333361020000e-1
3.709234880820000e-1 3.899411419880000e-1 4.099338518590000e-1 4.309516098860000e-1
4.530469714100000e-1 4.762751863440000e-1 5.006943373240000e-1 5.263654849480000e-1
5.533528204560000e-1 5.817238262440000e-1 6.115494446030000e-1 6.429042551160000e-1
6.758666611410000e-1 7.105190858609999e-1 7.469481783900001e-1 7.852450304320000e-1
8.255054040660001e-1 8.678299711970000e-1 9.123245652880000e-1 9.591004460010000e-1
1.008274577400000e0 1.059969920430000e0 1.114315740380000e0 1.171447930100000e0
1.231509349820000e0 1.294650184380000e0 1.361028318760000e0 1.430809732860000e0
1.504168916570000e0 1.581289306060000e0 1.662363742470000e0 1.747594954120000e0
1.837196063440000e0 1.931391119870000e0 2.030415660120000e0 2.134517297110000e0
2.243956339170000e0 2.359006440900000e0 2.479955287480000e0 2.607105314030000e0
2.740774461850000e0 2.881296973430000e0 3.029024228240000e0 3.184325621370000e0
3.347589487200000e0 3.519224070420000e0 3.699658546910000e0 3.889344096820000e0
4.088755032850000e0 4.298389986200000e0 4.518773153440000e0 4.750455607290000e0
4.994016674570000e0 5.250065384790000e0 5.519241993120000e0 5.802219581270000e0
6.099705740610000e0 6.412444341510000e0 6.741217393340000e0 7.086847000010000e0
7.450197415550000e0 7.832177205260000e0 8.233741517590000e0 8.655894472470001e0
9.099691672190000e0 9.566242840910000e0 1.005671459960000e1 1.057233338300000e1
1.111438850680000e1 1.168423539110000e1 1.228329894990000e1 1.291307715420000e1
1.357514477750000e1 1.427115733370000e1 1.500285521680000e1 1.577206805250000e1
1.658071927370000e1 1.743083092950000e1 1.832452874200000e1 1.926404742120000e1
2.025173625310000e1 2.129006497430000e1 2.238162994750000e1 2.352916065360000e1
2.473552651710000e1 2.600374408110000e1 2.733698455000000e1 2.873858171950000e1
3.021204031250000e1 3.176104474310000e1 3.338946832910000e1 3.510138297780000e1
3.690106936740000e1 3.879302765130000e1 4.078198871070000e1 4.287292598430000e1
4.507106790440001e1 4.738191097070000e1 4.981123349450001e1 5.236511004760001e1
5.504992665160001e1 5.787239674650000e1 6.083957797760000e1
</PP_R>
<PP_RAB>
2.795521899190001e-6 2.938851371900000e-6 3.089529503830000e-6 3.247933068770000e-6
3.414458158160000e-6 3.589521171460000e-6 3.773559857390000e-6 3.967034408520000e-6
4.170428612010001e-6 4.384251059300000e-6 4.609036417900000e-6 4.845346768280000e-6
5.093773009410000e-6 5.354936336300000e-6 5.629489793279999e-6 5.918119907019999e-6
6.221548403140000e-6 6.540534010920000e-6 6.875874360550000e-6 7.228407977560001e-6
7.599016379619999e-6 7.988626280780000e-6 8.398211908740000e-6 8.828797440899999e-6
9.281459565370000e-6 9.757330173260000e-6 1.025759918890000e-5 1.078351754550000e-5
1.133640031290000e-5 1.191762998590000e-5 1.252865994150000e-5 1.317101807280000e-5
1.384631060980000e-5 1.455622613550000e-5 1.530253980860000e-5 1.608711780190000e-5
1.691192196910000e-5 1.777901475030000e-5 1.869056432900000e-5 1.964885005410000e-5
2.065626813890000e-5 2.171533765340000e-5 2.282870682310000e-5 2.399915965070000e-5
2.522962287810000e-5 2.652317330420000e-5 2.788304547890000e-5 2.931263979090000e-5
3.081553097070000e-5 3.239547702899999e-5 3.405642865390001e-5 3.580253908960001e-5
3.763817452180001e-5 3.956792499510000e-5 4.159661589090000e-5 4.372931999320000e-5
4.597137017300001e-5 4.832837272370000e-5 5.080622137930000e-5 5.341111205209998e-5
5.614955832570000e-5 5.902840774210000e-5 6.205485892440000e-5 6.523647957690000e-5
6.858122540849999e-5 7.209746002599999e-5 7.579397584750001e-5 7.968001608790000e-5
8.376529787190002e-5 8.806003653209999e-5 9.257497115200000e-5 9.732139141999998e-5
1.023111658590000e-4 1.075567715040000e-4 1.130713251020000e-4 1.188686159080000e-4
1.249631401710000e-4 1.313701373740000e-4 1.381056283480000e-4 1.451864553290000e-4
1.526303240730000e-4 1.604558481280000e-4 1.686825953820000e-4 1.773311369860000e-4
1.864230988010000e-4 1.959812154670000e-4 2.060293872530000e-4 2.165927398230000e-4
2.276976870610000e-4 2.393719971190000e-4 2.516448618530001e-4 2.645469698170000e-4
2.781105830030000e-4 2.923696175070000e-4 3.073597283440000e-4 3.231183985980000e-4
3.396850331530000e-4 3.571010572250000e-4 3.754100199460000e-4 3.946577032600000e-4
4.148922363990001e-4 4.361642162370000e-4 4.585268338030000e-4 4.820360072900001e-4
5.067505218770001e-4 5.327321767230000e-4 5.600459394980001e-4 5.887601088369999e-4
6.189464851189999e-4 6.506805500100000e-4 6.840416551990001e-4 7.191132208280000e-4
7.559829440780000e-4 7.947430184630000e-4 8.354903643569999e-4 8.783268713489999e-4
9.233596530190001e-4 9.707013147790001e-4 1.020470235440000e-3 1.072790863230000e-3
1.127794026970000e-3 1.185617263220000e-3 1.246405160190000e-3 1.310309719280000e-3
1.377490735180000e-3 1.448116195420000e-3 1.522362700440000e-3 1.600415905170000e-3
1.682470983290000e-3 1.768733115220000e-3 1.859418001240000e-3 1.954752400780000e-3
2.054974699510000e-3 2.160335505380000e-3 2.271098275280000e-3 2.387539973830000e-3
2.509951765940000e-3 2.638639744830000e-3 2.773925697480000e-3 2.916147909260000e-3
3.065662009760000e-3 3.222841862120001e-3 3.388080497840000e-3 3.561791099570000e-3
3.744408034309999e-3 3.936387939510000e-3 4.138210864930000e-3 4.350381473010000e-3
4.573430300780000e-3 4.807915086500000e-3 5.054422164269999e-3 5.313567930180000e-3
5.586000383630000e-3 5.872400747660000e-3 6.173485172350000e-3 6.490006525599999e-3
6.822756275650001e-3 7.172566470210000e-3 7.540311816970001e-3 7.926911870840001e-3
8.333333333330001e-3 8.760592469800001e-3 9.209757650630001e-3 9.681952022739999e-3
1.017835631800000e-2 1.070021180570000e-2 1.124882339650000e-2 1.182556290490000e-2
1.243187248030000e-2 1.306926821240000e-2 1.373934392250000e-2 1.444377514890000e-2
1.518432333660000e-2 1.596284024180000e-2 1.678127256230000e-2 1.764166680510000e-2
1.854617440410000e-2 1.949705709940000e-2 2.049669259300000e-2 2.154758049430000e-2
2.265234857050000e-2 2.381375931720000e-2 2.503471686620000e-2 2.631827424740000e-2
2.766764102280000e-2 2.908619131220000e-2 3.057747223020000e-2 3.214521275580000e-2
3.379333305699999e-2 3.552595429310000e-2 3.734740891950000e-2 3.926225152160000e-2
4.127527020330000e-2 4.339149855980001e-2 4.561622826439999e-2 4.795502229999999e-2
5.041372887010000e-2 5.299849602170000e-2 5.571578701900000e-2 5.857239650490000e-2
6.157546749110000e-2 6.473250921920000e-2 6.805141593810000e-2 7.154048664310000e-2
7.520844582860001e-2 7.906446530300000e-2 8.311818712350000e-2 8.737974770610000e-2
9.185980317200000e-2 9.656955599350001e-2 1.015207830060000e-1 1.067258648560000e-1
1.121978169580000e-1 1.179503220450000e-1 1.239977643740000e-1 1.303552657020000e-1
1.370387230920000e-1 1.440648486710000e-1 1.514512114120000e-1 1.592162810690000e-1
1.673794743600000e-1 1.759612035210000e-1 1.849829273450000e-1 1.944672048410000e-1
2.044377516430000e-1 2.149194993100000e-1 2.259386576720000e-1 2.375227803650000e-1
2.497008337280000e-1 2.625032692400000e-1 2.759620996560000e-1 2.901109790630000e-1
3.049852870310000e-1 3.206222170750000e-1 3.370608696670000e-1 3.543423500010000e-1
3.725098707780000e-1 3.916088602630000e-1 4.116870758790000e-1 4.327947236240000e-1
4.549845836100000e-1 4.783121420450000e-1 5.028357299780000e-1 5.286166691510000e-1
5.557194253410001e-1 5.842117695560000e-1 6.141649474970000e-1 6.456538577110001e-1
6.787572388749999e-1 7.135578666850000e-1 7.501427608380000e-1 7.886034026240000e-1
8.290359636830001e-1 8.715415464760000e-1 9.162264371010000e-1 9.632023710599999e-1
1.012586812660000e0 1.064503248720000e0 1.119081497370000e0 1.176458032680000e0
1.236776325850000e0 1.300187204050000e0 1.366849227500000e0 1.436929085970000e0
1.510602015630000e0 1.588052237160000e0 1.669473416460000e0 1.755069148890000e0
1.845053468370000e0 1.939651382560000e0 2.039099435540000e0 2.143646299210000e0
2.253553395220000e0 2.369095548530000e0 2.490561674730000e0 2.618255502380000e0
2.752496332580000e0 2.893619837320000e0 3.041978898880000e0
</PP_RAB>
</PP_MESH>
<PP_LOCAL columns="4">
-2.883387300000000e1 -2.883386800000000e1 -2.883386300000000e1 -2.883385900000000e1
-2.883385500000000e1 -2.883384800000000e1 -2.883384100000000e1 -2.883383400000000e1
-2.883382700000000e1 -2.883381700000000e1 -2.883380700000000e1 -2.883379700000000e1
-2.883378500000000e1 -2.883377100000000e1 -2.883375700000000e1 -2.883374100000000e1
-2.883372300000000e1 -2.883370300000000e1 -2.883368100000000e1 -2.883365700000000e1
-2.883363100000000e1 -2.883360100000001e1 -2.883356800000000e1 -2.883353300000000e1
-2.883349300000000e1 -2.883344900000001e1 -2.883340000000000e1 -2.883334700000000e1
-2.883328700000000e1 -2.883322200000000e1 -2.883315000000000e1 -2.883307000000000e1
-2.883298100000000e1 -2.883288400000000e1 -2.883277600000000e1 -2.883265600000000e1
-2.883252500000000e1 -2.883237900000000e1 -2.883221800000000e1 -2.883204000000000e1
-2.883184400000000e1 -2.883162700000000e1 -2.883138700000000e1 -2.883112200000000e1
-2.883083000000000e1 -2.883050600000000e1 -2.883014900000000e1 -2.882975500000000e1
-2.882931900000001e1 -2.882883800000000e1 -2.882830600000000e1 -2.882771900000000e1
-2.882707100000000e1 -2.882635500000000e1 -2.882556500000000e1 -2.882469200000000e1
-2.882372900000000e1 -2.882266600000000e1 -2.882149300000000e1 -2.882019800000000e1
-2.881877000000000e1 -2.881719500000001e1 -2.881545800000000e1 -2.881354200000001e1
-2.881143100000000e1 -2.880910400000000e1 -2.880654100000000e1 -2.880371700000000e1
-2.880060900000000e1 -2.879718700000000e1 -2.879342300000000e1 -2.878928300000000e1
-2.878473300000000e1 -2.877973400000000e1 -2.877424500000000e1 -2.876822200000000e1
-2.876161600000000e1 -2.875437600000000e1 -2.874644800000000e1 -2.873777300000000e1
-2.872828700000000e1 -2.871792600000000e1 -2.870661800000000e1 -2.869428900000000e1
-2.868086200000000e1 -2.866625400000000e1 -2.865038000000000e1 -2.863314900000000e1
-2.861447100000000e1 -2.859424700000000e1 -2.857238000000000e1 -2.854876600000000e1
-2.852330100000000e1 -2.849587900000000e1 -2.846638900000000e1 -2.843472000000000e1
-2.840076100000000e1 -2.836439700000000e1 -2.832551500000000e1 -2.828400000000000e1
-2.823974000000000e1 -2.819262200000000e1 -2.814253600000000e1 -2.808937400000000e1
-2.803303500000000e1 -2.797341800000000e1 -2.791043300000000e1 -2.784399600000000e1
-2.777403200000000e1 -2.770047700000000e1 -2.762328200000000e1 -2.754240900000000e1
-2.745783900000000e1 -2.736957100000000e1 -2.727762500000000e1 -2.718204200000000e1
-2.708289000000000e1 -2.698026100000000e1 -2.687427400000000e1 -2.676508000000000e1
-2.665285600000000e1 -2.653781300000000e1 -2.642019100000000e1 -2.630026000000000e1
-2.617832200000000e1 -2.605470600000000e1 -2.592976600000000e1 -2.580388200000000e1
-2.567745400000000e1 -2.555089900000000e1 -2.542464600000000e1 -2.529913300000000e1
-2.517479900000000e1 -2.505208200000000e1 -2.493141100000000e1 -2.481320100000000e1
-2.469784700000000e1 -2.458571900000000e1 -2.447715600000000e1 -2.437246500000000e1
-2.427191000000000e1 -2.417571300000000e1 -2.408405100000000e1 -2.399705200000000e1
-2.391479000000000e1 -2.383728800000000e1 -2.376451700000000e1 -2.369638800000000e1
-2.363276000000000e1 -2.357343400000000e1 -2.351815400000000e1 -2.346660800000000e1
-2.341842500000000e1 -2.337317500000000e1 -2.333037200000000e1 -2.328946700000000e1
-2.324985100000000e1 -2.321085500000000e1 -2.317174000000000e1 -2.313170100000000e1
-2.308985900000000e1 -2.304525600000000e1 -2.299684300000000e1 -2.294347600000000e1
-2.288389800000000e1 -2.281672200000000e1 -2.274041900000000e1 -2.265329000000000e1
-2.255344900000000e1 -2.243879300000000e1 -2.230698400000000e1 -2.215542100000000e1
-2.198122800000000e1 -2.178124200000000e1 -2.155201000000000e1 -2.128981100000000e1
-2.099069100000000e1 -2.065052700000000e1 -2.026511900000000e1 -1.983032600000000e1
-1.934223400000000e1 -1.879738300000000e1 -1.819304700000000e1 -1.752759900000000e1
-1.680101500000000e1 -1.601557000000000e1 -1.517648600000000e1 -1.429191100000000e1
-1.337279300000000e1 -1.243434700000000e1 -1.149788100000000e1 -1.059056800000000e1
-9.743440300000000e0 -8.988186799999999e0 -8.352507500000000e0 -7.853704600000000e0
-7.490669600000000e0 -7.235685200000000e0 -7.030577200000000e0 -6.798445700000000e0
-6.494653200000000e0 -6.178552200000000e0 -5.877549600000000e0 -5.591068200000000e0
-5.318474100000000e0 -5.059130300000000e0 -4.812412500000000e0 -4.577716100000000e0
-4.354461200000000e0 -4.142092400000000e0 -3.940080100000000e0 -3.747919900000000e0
-3.565131500000000e0 -3.391257800000000e0 -3.225864100000000e0 -3.068536800000000e0
-2.918882500000000e0 -2.776526900000000e0 -2.641114100000000e0 -2.512305400000000e0
-2.389778800000000e0 -2.273228000000000e0 -2.162361300000000e0 -2.056901700000000e0
-1.956585500000000e0 -1.861161600000000e0 -1.770391700000000e0 -1.684048700000000e0
-1.601916700000000e0 -1.523790300000000e0 -1.449474100000000e0 -1.378782500000000e0
-1.311538400000000e0 -1.247574000000000e0 -1.186729100000000e0 -1.128851600000000e0
-1.073796900000000e0 -1.021427200000000e0 -9.716115800000001e-1 -9.242255200000001e-1
-8.791505100000000e-1 -8.362738400000001e-1 -7.954882800000000e-1 -7.566918600000000e-1
-7.197875600000000e-1 -6.846831100000000e-1 -6.512907200000000e-1 -6.195269000000000e-1
-5.893122100000000e-1 -5.605711200000000e-1 -5.332317399999999e-1 -5.072257300000000e-1
-4.824880400000000e-1 -4.589568200000000e-1 -4.365732299999999e-1 -4.152813000000000e-1
-3.950277900000000e-1 -3.757620600000000e-1 -3.574359300000000e-1 -3.400035700000000e-1
-3.234214000000000e-1 -3.076479500000000e-1 -2.926437900000000e-1 -2.783713800000000e-1
-2.647950500000000e-1 -2.518808400000000e-1 -2.395964700000000e-1 -2.279112100000000e-1
-2.167958500000000e-1 -2.062225900000000e-1 -1.961650000000000e-1 -1.865979200000000e-1
-1.774974300000000e-1 -1.688407800000000e-1 -1.606063200000000e-1 -1.527734500000000e-1
-1.453226000000000e-1 -1.382351400000000e-1 -1.314933300000000e-1
</PP_LOCAL>
<PP_NONLOCAL>
<PP_BETA.1 index="1" label="2S" angular_momentum="0" cutoff_radius_index="243" cutoff_radius="1.230000000000e0" ultrasoft_cutoff_radius="0.000000000000e0">
7.186300982700001e-4 7.554750212939999e-4 7.942090439780001e-4 8.349290394810000e-4
8.777367560550001e-4 9.227392841960000e-4 9.700491606949999e-4 1.019784624810000e-3
1.072070123390000e-3 1.127036307300000e-3 1.184820688760000e-3 1.245567792530000e-3
1.309429425640000e-3 1.376565247960000e-3 1.447143276210000e-3 1.521339935040000e-3
1.599340693860000e-3 1.681340620950000e-3 1.767544783320000e-3 1.858168752810000e-3
1.953439172410000e-3 2.053594077760000e-3 2.158884151840000e-3 2.269572501850000e-3
2.385936014500000e-3 2.508265603249999e-3 2.636867052600000e-3 2.772062207660000e-3
2.914188677290000e-3 3.063602381250000e-3 3.220676729760000e-3 3.385804379890000e-3
3.559398287180000e-3 3.741892753810000e-3 3.933743622440000e-3 4.135430783099999e-3
4.347459113010000e-3 4.570358050709999e-3 4.804685364520000e-3 5.051026734410000e-3
5.309998709390000e-3 5.582248240520000e-3 5.868456316480000e-3 6.169338557680000e-3
6.485647593290000e-3 6.818173821259999e-3 7.167749198619999e-3 7.535248011890000e-3
7.921588593490001e-3 8.327737455170002e-3 8.754709636210000e-3 9.203573665780000e-3
9.675451453340001e-3 1.017152301210000e-2 1.069302869510000e-2 1.124127250550000e-2
1.181762571640000e-2 1.242352920740000e-2 1.306049809020000e-2 1.373012505820000e-2
1.443408487650000e-2 1.517413803220000e-2 1.595213457030000e-2 1.677001962800000e-2
1.762983977290000e-2 1.853374369270000e-2 1.948399277010000e-2 2.048296184320000e-2
2.153315050130000e-2 2.263718347300000e-2 2.379782321910000e-2 2.501796966280000e-2
2.630067671030000e-2 2.764915133190000e-2 2.906676498260000e-2 3.055706332880000e-2
3.212377253380000e-2 3.377080907510000e-2 3.550229646480000e-2 3.732256119720000e-2
3.923615452840000e-2 4.124786891749999e-2 4.336272882219999e-2 4.558602403320000e-2
4.792331879030000e-2 5.038045811170000e-2 5.296358670360000e-2 5.567916144070000e-2
5.853398442640000e-2 6.153518909570001e-2 6.469028692770000e-2 6.800716830110000e-2
7.149413112590000e-2 7.515990569769999e-2 7.901365813660000e-2 8.306502789300001e-2
8.732416169790000e-2 9.180171222940000e-2 9.650888655820001e-2 1.014574649780000e-1
1.066598424000000e-1 1.121290370610000e-1 1.178787470290000e-1 1.239233633480000e-1
1.302780394610000e-1 1.369586765670000e-1 1.439820269110000e-1 1.513656868540000e-1
1.591281630010000e-1 1.672889157700000e-1 1.758684271100000e-1 1.848882019110000e-1
1.943708834700000e-1 2.043402773580000e-1 2.148214296930000e-1 2.258406531820000e-1
2.374256826100000e-1 2.496056524550000e-1 2.624111977210000e-1 2.758745791170000e-1
2.900297527520000e-1 3.049124108060000e-1 3.205601088180000e-1 3.370124253970000e-1
3.543109584890000e-1 3.724995714940000e-1 3.916243386310000e-1 4.117338533620000e-1
4.328792952490000e-1 4.551145173260000e-1 4.784962917750001e-1 5.030844453220000e-1
5.289420047230000e-1 5.561353804119999e-1 5.847347032560000e-1 6.148137985820000e-1
6.464506574320001e-1 6.797274917660000e-1 7.147310974260001e-1 7.515531951740000e-1
7.902905164389999e-1 8.310452695430000e-1 8.739255683069999e-1 9.190455911410000e-1
9.665259977960000e-1 1.016494404580000e0 1.069085831090000e0 1.124442879340000e0
1.182716489130000e0 1.244066122570000e0 1.308660252190000e0 1.376676839540000e0
1.448303470380000e0 1.523737731520000e0 1.603187474070000e0 1.686870334140000e0
1.775013851500000e0 1.867854839680000e0 1.965637779040000e0 2.068613595570000e0
2.177036841810000e0 2.291162267790000e0 2.411239195710000e0 2.537505494180000e0
2.670177031350000e0 2.809436448040000e0 2.955416067840000e0 3.108177291820000e0
3.267682870470000e0 3.433761661090000e0 3.606065159300000e0 3.784009544710000e0
3.966708200400000e0 4.152884819620000e0 4.340768720140000e0 4.527970965120000e0
4.711338532190000e0 4.886789649420000e0 5.049132269130000e0 5.191881905440000e0
5.307092348160000e0 5.385237460800000e0 5.415192211330000e0 5.384388931840000e0
5.279252454440000e0 5.086046268590000e0 4.792274775600000e0 4.388787395680000e0
3.872643311380000e0 3.250639871510000e0 2.543082994890000e0 1.786885220640000e0
1.036501419300000e0 3.606654666310000e-1 -1.671536545320000e-1 -4.857057166500000e-1
-5.688872704450000e-1 -4.487167018480000e-1 -2.258181000720000e-1 -4.529749589360000e-2
0.000000000000000e0 0.000000000000000e0 0.000000000000000e0 0.000000000000000e0
0.000000000000000e0 0.000000000000000e0 0.000000000000000e0 0.000000000000000e0
0.000000000000000e0 0.000000000000000e0 0.000000000000000e0 0.000000000000000e0
0.000000000000000e0 0.000000000000000e0 0.000000000000000e0 0.000000000000000e0
0.000000000000000e0 0.000000000000000e0 0.000000000000000e0 0.000000000000000e0
0.000000000000000e0 0.000000000000000e0 0.000000000000000e0 0.000000000000000e0
0.000000000000000e0 0.000000000000000e0 0.000000000000000e0 0.000000000000000e0
0.000000000000000e0 0.000000000000000e0 0.000000000000000e0 0.000000000000000e0
0.000000000000000e0 0.000000000000000e0 0.000000000000000e0 0.000000000000000e0
0.000000000000000e0 0.000000000000000e0 0.000000000000000e0 0.000000000000000e0
0.000000000000000e0 0.000000000000000e0 0.000000000000000e0 0.000000000000000e0
0.000000000000000e0 0.000000000000000e0 0.000000000000000e0 0.000000000000000e0
0.000000000000000e0 0.000000000000000e0 0.000000000000000e0 0.000000000000000e0
0.000000000000000e0 0.000000000000000e0 0.000000000000000e0 0.000000000000000e0
0.000000000000000e0 0.000000000000000e0 0.000000000000000e0 0.000000000000000e0
0.000000000000000e0 0.000000000000000e0 0.000000000000000e0 0.000000000000000e0
0.000000000000000e0 0.000000000000000e0 0.000000000000000e0 0.000000000000000e0
0.000000000000000e0 0.000000000000000e0 0.000000000000000e0 0.000000000000000e0
0.000000000000000e0 0.000000000000000e0 0.000000000000000e0 0.000000000000000e0
0.000000000000000e0 0.000000000000000e0 0.000000000000000e0
</PP_BETA.1>
<PP_DIJ>
1.112717341730000e0
</PP_DIJ>
</PP_NONLOCAL>
<PP_PSWFC>
<PP_CHI.1 index="1" label="2S" l="0" occupation="2.000000000000e0" n="0" pseudo_energy="0.000000000000e0" cutoff_radius="1.230000000000e0" ultrasoft_cutoff_radius="0.000000000000e0">
3.427735500000000e-5 3.603479200000001e-5 3.788233500000000e-5 3.982460400000000e-5
4.186645500000000e-5 4.401299500000000e-5 4.626958899999999e-5 4.864188200000000e-5
5.113580400000000e-5 5.375759300000000e-5 5.651380400000000e-5 5.941132900000000e-5
6.245741300000001e-5 6.565967300000000e-5 6.902611599999999e-5 7.256516100000000e-5
7.628565600000002e-5 8.019690600000001e-5 8.430868900000000e-5 8.863128800000000e-5
9.317551199999999e-5 9.795272199999999e-5 1.029748700000000e-4 1.082545000000000e-4
1.138048300000000e-4 1.196397300000000e-4 1.257737900000000e-4 1.322223500000000e-4
1.390015300000000e-4 1.461282900000000e-4 1.536204500000000e-4 1.614967400000000e-4
1.697768600000000e-4 1.784815100000000e-4 1.876324500000000e-4 1.972525700000000e-4
2.073659300000000e-4 2.179978100000000e-4 2.291748000000000e-4 2.409248400000000e-4
2.532773300000000e-4 2.662631400000000e-4 2.799147500000000e-4 2.942662900000000e-4
3.093536500000000e-4 3.252145600000000e-4 3.418886700000000e-4 3.594176900000000e-4
3.778454400000000e-4 3.972180000000000e-4 4.175838100000000e-4 4.389938100000000e-4
4.615015200000000e-4 4.851632400000000e-4 5.100381100000000e-4 5.361883600000001e-4
5.636793600000000e-4 5.925798600000000e-4 6.229621200000000e-4 6.549021300000001e-4
6.884797400000000e-4 7.237789299999999e-4 7.608879500000000e-4 7.998996100000001e-4
8.409114600000001e-4 8.840260500000001e-4 9.293511900000000e-4 9.770002300000000e-4
1.027092300000000e-3 1.079752700000000e-3 1.135113100000000e-3 1.193311900000000e-3
1.254494700000000e-3 1.318814500000000e-3 1.386432100000000e-3 1.457516600000000e-3
1.532245800000000e-3 1.610806500000000e-3 1.693395300000000e-3 1.780218600000000e-3
1.871493600000000e-3 1.967448700000000e-3 2.068323700000000e-3 2.174370900000000e-3
2.285855600000000e-3 2.403056700000000e-3 2.526267199999999e-3 2.655795300000000e-3
2.791965100000000e-3 2.935117200000001e-3 3.085609600000001e-3 3.243818900000000e-3
3.410140800000000e-3 3.584991500000001e-3 3.768808500000000e-3 3.962051600000000e-3
4.165204500000000e-3 4.378775600000000e-3 4.603299300000000e-3 4.839337700000001e-3
5.087481700000001e-3 5.348352400000000e-3 5.622603200000000e-3 5.910920700000000e-3
6.214027099999999e-3 6.532681699999999e-3 6.867683000000001e-3 7.219870400000000e-3
7.590126699999999e-3 7.979380400000000e-3 8.388607700000000e-3 8.818835199999999e-3
9.271142700000000e-3 9.746665799999999e-3 1.024659900000000e-2 1.077219800000000e-2
1.132478500000000e-2 1.190575000000000e-2 1.251655500000000e-2 1.315873800000000e-2
1.383392000000000e-2 1.454380300000000e-2 1.529017900000000e-2 1.607493700000000e-2
1.690006100000000e-2 1.776764400000000e-2 1.867988600000000e-2 1.963910600000000e-2
2.064774700000000e-2 2.170838000000000e-2 2.282371700000000e-2 2.399661500000000e-2
2.523008700000000e-2 2.652730700000000e-2 2.789162900000000e-2 2.932658600000000e-2
3.083591300000000e-2 3.242355100000000e-2 3.409366600000000e-2 3.585066100000000e-2
3.769919300000000e-2 3.964419000000000e-2 4.169087400000000e-2 4.384477500000000e-2
4.611176200000000e-2 4.849806300000000e-2 5.101029400000000e-2 5.365549500000000e-2
5.644115899999999e-2 5.937527400000000e-2 6.246636500000000e-2 6.572354300000000e-2
6.915655800000000e-2 7.277586400000001e-2 7.659268299999999e-2 8.061908200000000e-2
8.486806800000000e-2 8.935367700000000e-2 9.409109599999999e-2 9.909678399999999e-2
1.043886200000000e-1 1.099860700000000e-1 1.159103700000000e-1 1.221847500000000e-1
1.288346400000000e-1 1.358880100000000e-1 1.433756000000000e-1 1.513313400000000e-1
1.597926800000000e-1 1.688010500000000e-1 1.784023400000000e-1 1.886473500000000e-1
1.995923900000000e-1 2.112997800000000e-1 2.238383900000000e-1 2.372840800000000e-1
2.517200300000000e-1 2.672368400000000e-1 2.839322000000000e-1 3.019100300000000e-1
3.212787500000000e-1 3.421482700000000e-1 3.646253200000000e-1 3.888064900000000e-1
4.147682600000000e-1 4.425533800000000e-1 4.721530200000000e-1 5.034843799999999e-1
5.363643900000000e-1 5.704812200000000e-1 6.053675699999999e-1 6.403822000000000e-1
6.747087100000000e-1 7.073827600000000e-1 7.373569300000000e-1 7.636059899999999e-1
7.852602300000000e-1 8.017335200000000e-1 8.127905999999999e-1 8.184938499999999e-1
8.190155700000000e-1 8.144611200000000e-1 8.049300600000000e-1 7.905934200000000e-1
7.716951100000000e-1 7.485469300000000e-1 7.215219000000000e-1 6.910462000000001e-1
6.575897400000001e-1 6.216558900000000e-1 5.837704300000000e-1 5.444702700000001e-1
5.042919500000000e-1 4.637605400000000e-1 4.233790600000000e-1 3.836187800000000e-1
3.449106600000000e-1 3.076381900000000e-1 2.721318200000000e-1 2.386651500000000e-1
2.074529500000000e-1 1.786509300000000e-1 1.523572200000000e-1 1.286153100000000e-1
1.074181100000000e-1 8.871294400000000e-2 7.240698299999999e-2 5.837298300000000e-2
4.645520400000000e-2 3.647556000000000e-2 2.824019100000000e-2 2.154651200000000e-2