<UPF version="2.0.1">
<PP_INFO>
Generated by new atomic code, or converted to UPF format
Author:
Generation date:
Pseudopotential type: US
Element: C
Functional:  SLA  PW   PBE  PBE
Suggested minimum cutoff for wavefunctions:   0. Ry
Suggested minimum cutoff for charge density:   0. Ry
The Pseudo was generated with a Non-Relativistic Calculation
L component and cutoff radius for Local Potential:  0   0.0000
Valence configuration:
nl pn  l   occ       Rcut    Rcut US       E pseu
2S  0  0  2.00      1.200      1.600     0.000000
2P  0  1  2.00      1.200      1.600     0.000000
Generation configuration: not available.
</PP_INFO>
<!--
END OF HUMAN READABLE SECTION
-->
<PP_HEADER generated="Generated by new atomic code, or converted to UPF format" author="" date="" comment="" element="C " pseudo_type="US" relativistic="no" is_ultrasoft="true" is_paw="false" is_coulomb="false" has_so="false" has_wfc="false" has_gipaw="false" paw_as_gipaw="false" core_correction="false" functional=" SLA  PW   PBE  PBE" z_valence="4.000000000000e0" total_psenergy="-1.071556050100e1" wfc_cutoff="0.000000000000e0" rho_cutoff="0.000000000000e0" l_max="2" l_max_rho="0" l_local="0" mesh_size="627" number_of_wfc="2" number_of_proj="4"/>
<PP_MESH dx="1.500000000000e-2" mesh="627" xmin="-3.000000000000e0" rmax="9.930942994800e1" zmesh="6.000000000000e0">
<PP_R>
8.297844727979999e-3 8.423250591519999e-3 8.550551721990001e-3 8.679776762659998e-3
8.810954789729999e-3 8.944115318790001e-3 9.079288311530000e-3 9.216504182450000e-3
9.355793805690000e-3 9.497188522010001e-3 9.640720145810000e-3 9.786420972310001e-3
9.934323784820000e-3 1.008446186210000e-2 1.023686898580000e-2 1.039157944830000e-2
1.054862805990000e-2 1.070805015740000e-2 1.086988161140000e-2 1.103415883450000e-2
1.120091879000000e-2 1.137019899940000e-2 1.154203755160000e-2 1.171647311090000e-2
1.189354492610000e-2 1.207329283900000e-2 1.225575729380000e-2 1.244097934570000e-2
1.262900067050000e-2 1.281986357360000e-2 1.301361100020000e-2 1.321028654410000e-2
1.340993445830000e-2 1.361259966420000e-2 1.381832776250000e-2 1.402716504290000e-2
1.423915849460000e-2 1.445435581700000e-2 1.467280543040000e-2 1.489455648700000e-2
1.511965888160000e-2 1.534816326320000e-2 1.558012104630000e-2 1.581558442240000e-2
1.605460637170000e-2 1.629724067520000e-2 1.654354192660000e-2 1.679356554470000e-2
1.704736778590000e-2 1.730500575680000e-2 1.756653742700000e-2 1.783202164220000e-2
1.810151813750000e-2 1.837508755070000e-2 1.865279143620000e-2 1.893469227850000e-2
1.922085350630000e-2 1.951133950740000e-2 1.980621564210000e-2 2.010554825890000e-2
2.040940470880000e-2 2.071785336100000e-2 2.103096361750000e-2 2.134880592960000e-2
2.167145181310000e-2 2.199897386460000e-2 2.233144577810000e-2 2.266894236110000e-2
2.301153955180000e-2 2.335931443600000e-2 2.371234526440000e-2 2.407071147060000e-2
2.443449368840000e-2 2.480377377040000e-2 2.517863480610000e-2 2.555916114080000e-2
2.594543839470000e-2 2.633755348160000e-2 2.673559462920000e-2 2.713965139840000e-2
2.754981470360000e-2 2.796617683340000e-2 2.838883147090000e-2 2.881787371530000e-2
2.925340010280000e-2 2.969550862880000e-2 3.014429876950000e-2 3.059987150460000e-2
3.106232933990000e-2 3.153177633030000e-2 3.200831810350000e-2 3.249206188320000e-2
3.298311651390000e-2 3.348159248500000e-2 3.398760195570000e-2 3.450125878020000e-2
3.502267853350000e-2 3.555197853720000e-2 3.608927788600000e-2 3.663469747460000e-2
3.718836002470000e-2 3.775039011270000e-2 3.832091419780000e-2 3.890006065020000e-2
3.948795978040000e-2 4.008474386810001e-2 4.069054719220000e-2 4.130550606120000e-2
4.192975884330000e-2 4.256344599800000e-2 4.320671010760000e-2 4.385969590930000e-2
4.452255032760000e-2 4.519542250760001e-2 4.587846384830000e-2 4.657182803690000e-2
4.727567108330000e-2 4.799015135509999e-2 4.871542961350000e-2 4.945166904900001e-2
5.019903531870000e-2 5.095769658310000e-2 5.172782354420001e-2 5.250958948390000e-2
5.330317030270000e-2 5.410874455970001e-2 5.492649351250000e-2 5.575660115810001e-2
5.659925427419999e-2 5.745464246120000e-2 5.832295818520000e-2 5.920439682080000e-2
6.009915669550000e-2 6.100743913400000e-2 6.192944850370000e-2 6.286539226050001e-2
6.381548099590000e-2 6.477992848360000e-2 6.575895172860000e-2 6.675277101510000e-2
6.776160995680001e-2 6.878569554650000e-2 6.982525820790000e-2 7.088053184700000e-2
7.195175390480001e-2 7.303916541080000e-2 7.414301103720000e-2 7.526353915380001e-2
7.640100188420000e-2 7.755565516239999e-2 7.872775879020000e-2 7.991757649580000e-2
8.112537599330000e-2 8.235142904269999e-2 8.359601151100000e-2 8.485940343459999e-2
8.614188908190000e-2 8.744375701779999e-2 8.876530016780000e-2 9.010681588490000e-2
9.146860601570001e-2 9.285097696870000e-2 9.425423978330000e-2 9.567871019940000e-2
9.712470872900001e-2 9.859256072779999e-2 1.000825964690000e-1 1.015951512160000e-1
1.031305653010000e-1 1.046891841980000e-1 1.062713586040000e-1 1.078774445130000e-1
1.095078033030000e-1 1.111628018100000e-1 1.128428124160000e-1 1.145482131320000e-1
1.162793876790000e-1 1.180367255780000e-1 1.198206222390000e-1 1.216314790450000e-1
1.234697034470000e-1 1.253357090530000e-1 1.272299157230000e-1 1.291527496600000e-1
1.311046435110000e-1 1.330860364600000e-1 1.350973743280000e-1 1.371391096760000e-1
1.392117019020000e-1 1.413156173480000e-1 1.434513294040000e-1 1.456193186150000e-1
1.478200727860000e-1 1.500540870980000e-1 1.523218642120000e-1 1.546239143880000e-1
1.569607555970000e-1 1.593329136390000e-1 1.617409222580000e-1 1.641853232670000e-1
1.666666666670000e-1 1.691855107690000e-1 1.717424223260000e-1 1.743379766510000e-1
1.769727577580000e-1 1.796473584810000e-1 1.823623806180000e-1 1.851184350590000e-1
1.879161419300000e-1 1.907561307250000e-1 1.936390404550000e-1 1.965655197850000e-1
1.995362271870000e-1 2.025518310820000e-1 2.056130099930000e-1 2.087204526990000e-1
2.118748583870000e-1 2.150769368120000e-1 2.183274084560000e-1 2.216270046870000e-1
2.249764679290000e-1 2.283765518260000e-1 2.318280214110000e-1 2.353316532780000e-1
2.388882357600000e-1 2.424985691030000e-1 2.461634656470000e-1 2.498837500090000e-1
2.536602592700000e-1 2.574938431590000e-1 2.613853642480000e-1 2.653356981480000e-1
2.693457336990000e-1 2.734163731760000e-1 2.775485324910000e-1 2.817431413970000e-1
2.860011436970000e-1 2.903234974620000e-1 2.947111752390000e-1 2.991651642730000e-1
3.036864667320000e-1 3.082760999260000e-1 3.129350965440000e-1 3.176645048790000e-1
3.224653890670000e-1 3.273388293280000e-1 3.322859222070000e-1 3.373077808200000e-1
3.424055351070000e-1 3.475803320840000e-1 3.528333361020000e-1 3.581657291090000e-1
3.635787109160000e-1 3.690734994670000e-1 3.746513311130000e-1 3.803134608880000e-1
3.860611627970000e-1 3.918957300960000e-1 3.978184755870000e-1 4.038307319139999e-1
4.099338518590000e-1 4.161292086510000e-1 4.224181962699999e-1 4.288022297650000e-1
4.352827455710000e-1 4.418612018300000e-1 4.485390787250000e-1 4.553178788040000e-1
4.621991273270000e-1 4.691843726040000e-1 4.762751863440000e-1 4.834731640100000e-1
4.907799251780000e-1 4.981971138990000e-1 5.057263990730000e-1 5.133694748200000e-1
5.211280608640000e-1 5.290039029210000e-1 5.369987730880000e-1 5.451144702440000e-1
5.533528204560000e-1 5.617156773870001e-1 5.702049227150000e-1 5.788224665560000e-1
5.875702478940000e-1 5.964502350170000e-1 6.054644259590000e-1 6.146148489510001e-1
6.239035628770000e-1 6.333326577370000e-1 6.429042551160000e-1 6.526205086650000e-1
6.624836045820000e-1 6.724957621050000e-1 6.826592340120000e-1 6.929763071260000e-1
7.034493028330000e-1 7.140805776000000e-1 7.248725235100000e-1 7.358275687960000e-1
7.469481783900001e-1 7.582368544740000e-1 7.696961370500000e-1 7.813286045040000e-1
7.931368741900000e-1 8.051236030180000e-1 8.172914880540000e-1 8.296432671229999e-1
8.421817194270000e-1 8.549096661709999e-1 8.678299711970000e-1 8.809455416270000e-1
8.942593285200001e-1 9.077743275350000e-1 9.214935796040001e-1 9.354201716160000e-1
9.495572371120000e-1 9.639079569930001e-1 9.784755602300001e-1 9.932633245969999e-1
1.008274577400000e0 1.023512696240000e0 1.038981109750000e0 1.054683298400000e0
1.070622795240000e0 1.086803186720000e0 1.103228113510000e0 1.119901271270000e0
1.136826411550000e0 1.154007342560000e0 1.171447930100000e0 1.189152098360000e0
1.207123830860000e0 1.225367171320000e0 1.243886224550000e0 1.262685157440000e0
1.281768199810000e0 1.301139645440000e0 1.320803852970000e0 1.340765246950000e0
1.361028318760000e0 1.381597627690000e0 1.402477801910000e0 1.423673539550000e0
1.445189609740000e0 1.467030853700000e0 1.489202185780000e0 1.511708594640000e0
1.534555144310000e0 1.557746975370000e0 1.581289306060000e0 1.605187433520000e0
1.629446734920000e0 1.654072668710000e0 1.679070775840000e0 1.704446680970000e0
1.730206093790000e0 1.756354810280000e0 1.782898714020000e0 1.809843777490000e0
1.837196063440000e0 1.864961726260000e0 1.893147013330000e0 1.921758266470000e0
1.950801923330000e0 1.980284518850000e0 2.010212686740000e0 2.040593160970000e0
2.071432777260000e0 2.102738474670000e0 2.134517297110000e0 2.166776394950000e0
2.199523026610000e0 2.232764560230000e0 2.266508475310000e0 2.300762364340000e0
2.335533934620000e0 2.370831009890000e0 2.406661532130000e0 2.443033563380000e0
2.479955287480000e0 2.517435011980000e0 2.555481169980000e0 2.594102322030000e0
2.633307158040000e0 2.673104499280000e0 2.713503300300000e0 2.754512651010000e0
2.796141778690000e0 2.838400050070000e0 2.881296973430000e0 2.924842200760000e0
2.969045529940000e0 3.013916906880000e0 3.059466427840000e0 3.105704341650000e0
3.152641052040000e0 3.200287119970000e0 3.248653266010000e0 3.297750372730000e0
3.347589487200000e0 3.398181823420000e0 3.449538764900000e0 3.501671867150000e0
3.554592860340000e0 3.608313651920000e0 3.662846329290000e0 3.718203162550000e0
3.774396607200000e0 3.831439307010000e0 3.889344096820000e0 3.948124005470000e0
4.007792258680000e0 4.068362282050000e0 4.129847704100000e0 4.192262359300000e0
4.255620291230000e0 4.319935755670000e0 4.385223223880000e0 4.451497385810000e0
4.518773153440000e0 4.587065664090000e0 4.656390283870000e0 4.726762611110000e0
4.798198479870000e0 4.870713963540000e0 4.944325378390000e0 5.019049287320000e0
5.094902503510000e0 5.171902094250000e0 5.250065384790000e0 5.329409962190000e0
5.409953679310000e0 5.491714658830000e0 5.574711297320000e0 5.658962269370000e0
5.744486531810000e0 5.831303327950000e0 5.919432191940000e0 6.008892953140000e0
6.099705740610000e0 6.191890987610000e0 6.285469436200000e0 6.380462141930000e0
6.476890478560000e0 6.574776142870000e0 6.674141159550000e0 6.775007886150000e0
6.877399018100000e0 6.981337593850000e0 7.086847000010000e0 7.193950976640000e0
7.302673622600000e0 7.413039400920000e0 7.525073144390000e0 7.638800061060000e0
7.754245739960000e0 7.871436156880000e0 7.990397680140000e0 8.111157076580000e0
8.233741517590000e0 8.358178585170000e0 8.484496278200000e0 8.612723018680001e0
8.742887658180001e0 8.875019484290000e0 9.009148227220001e0 9.145304066510000e0
9.283517637799999e0 9.423820039720001e0 9.566242840910000e0 9.710818087090001e0
9.857578308310000e0 1.000655652620000e1 1.015778626160000e1 1.031130154170000e1
1.046713690820000e1 1.062532742460000e1 1.078590868460000e1 1.094891681950000e1
1.111438850680000e1 1.128236097850000e1 1.145287202900000e1 1.162596002400000e1
1.180166390900000e1 1.198002321830000e1 1.216107808330000e1 1.234486924210000e1
1.253143804870000e1 1.272082648160000e1 1.291307715420000e1 1.310823332360000e1
1.330633890080000e1 1.350743846050000e1 1.371157725070000e1 1.391880120370000e1
1.412915694560000e1 1.434269180750000e1 1.455945383560000e1 1.477949180220000e1
1.500285521680000e1 1.522959433710000e1 1.545976018040000e1 1.569340453490000e1
1.593057997170000e1 1.617133985620000e1 1.641573836030000e1 1.666383047490000e1
1.691567202160000e1 1.717131966590000e1 1.743083092950000e1 1.769426420370000e1
1.796167876190000e1 1.823313477360000e1 1.850869331760000e1 1.878841639570000e1
1.907236694670000e1 1.936060886070000e1 1.965320699340000e1 1.995022718060000e1
2.025173625310000e1 2.055780205170000e1 2.086849344250000e1 2.118388033230000e1
2.150403368460000e1 2.182902553510000e1 2.215892900850000e1 2.249381833450000e1
2.283376886440000e1 2.317885708870000e1 2.352916065360000e1 2.388475837890000e1
2.424573027560000e1 2.461215756390000e1 2.498412269150000e1 2.536170935210000e1
2.574500250430000e1 2.613408839070000e1 2.652905455720000e1 2.692998987290000e1
2.733698455000000e1 2.775013016390000e1 2.816951967410000e1 2.859524744520000e1
2.902740926750000e1 2.946610237940000e1 2.991142548860000e1 3.036347879480000e1
3.082236401180000e1 3.128818439070000e1 3.176104474310000e1 3.224105146460000e1
3.272831255860000e1 3.322293766110000e1 3.372503806470000e1 3.423472674410000e1
3.475211838150000e1 3.527732939210000e1 3.581047795070000e1 3.635168401790000e1
3.690106936740000e1 3.745875761310000e1 3.802487423730000e1 3.859954661870001e1
3.918290406090000e1 3.977507782180000e1 4.037620114300000e1 4.098640927980000e1
4.160583953160000e1 4.223463127280001e1 4.287292598430000e1 4.352086728500001e1
4.417860096440000e1 4.484627501540000e1 4.552403966750000e1 4.621204742050000e1
4.691045307920001e1 4.761941378780000e1 4.833908906530000e1 4.906964084180000e1
4.981123349450001e1 5.056403388490001e1 5.132821139620000e1 5.210393797170000e1
5.289138815300000e1 5.369073911970000e1 5.450217072930000e1 5.532586555730000e1
5.616200893830000e1 5.701078900840001e1 5.787239674650000e1 5.874702601800000e1
5.963487361810000e1 6.053613931650000e1 6.145102590160000e1 6.237973922670001e1
6.332248825640001e1 6.427948511300001e1 6.525094512500001e1 6.623708687490001e1
6.723813224880001e1 6.825430648610001e1 6.928583823030000e1 7.033295958050001e1
7.139590614319999e1 7.247491708610001e1 7.357023519100000e1 7.468210690920000e1
7.581078241660001e1 7.695651566980001e1 7.811956446370001e1 7.930019048920001e1
8.049865939209999e1 8.171524083300000e1 8.295020854780001e1 8.420384040950001e1
8.547641849050001e1 8.676822912620000e1 8.807956297960001e1 8.941071510620000e1
9.076198502100000e1 9.213367676530000e1 9.352609897550002e1 9.493956495259999e1
9.637439273230001e1 9.783090515700001e1 9.930942994800001e1
</PP_R>
<PP_RAB>
1.244676709200000e-4 1.263487588730000e-4 1.282582758300000e-4 1.301966514400000e-4
1.321643218460000e-4 1.341617297820000e-4 1.361893246730000e-4 1.382475627370000e-4
1.403369070850000e-4 1.424578278300000e-4 1.446108021870000e-4 1.467963145850000e-4
1.490148567720000e-4 1.512669279310000e-4 1.535530347880000e-4 1.558736917240000e-4
1.582294208990000e-4 1.606207523610000e-4 1.630482241700000e-4 1.655123825180000e-4
1.680137818490000e-4 1.705529849910000e-4 1.731305632730000e-4 1.757470966630000e-4
1.784031738910000e-4 1.810993925860000e-4 1.838363594080000e-4 1.866146901860000e-4
1.894350100570000e-4 1.922979536050000e-4 1.952041650030000e-4 1.981542981620000e-4
2.011490168740000e-4 2.041889949630000e-4 2.072749164380000e-4 2.104074756430000e-4
2.135873774180000e-4 2.168153372540000e-4 2.200920814560000e-4 2.234183473040000e-4
2.267948832240000e-4 2.302224489480000e-4 2.337018156950000e-4 2.372337663370000e-4
2.408190955760000e-4 2.444586101280000e-4 2.481531288990000e-4 2.519034831710000e-4
2.557105167890001e-4 2.595750863520000e-4 2.634980614050000e-4 2.674803246330000e-4
2.715227720620000e-4 2.756263132610000e-4 2.797918715430000e-4 2.840203841770000e-4
2.883128025950000e-4 2.926700926100000e-4 2.970932346310000e-4 3.015832238830000e-4
3.061410706320000e-4 3.107678004140000e-4 3.154644542630000e-4 3.202320889440000e-4
3.250717771960000e-4 3.299846079700000e-4 3.349716866720000e-4 3.400341354170000e-4
3.451730932770000e-4 3.503897165400000e-4 3.556851789660000e-4 3.610606720589999e-4
3.665174053260000e-4 3.720566065550001e-4 3.776795220910000e-4 3.833874171120000e-4
3.891815759200000e-4 3.950633022240000e-4 4.010339194380000e-4 4.070947709750000e-4
4.132472205540000e-4 4.194926525000000e-4 4.258324720640000e-4 4.322681057290001e-4
4.388010015420000e-4 4.454326294320000e-4 4.521644815429999e-4 4.589980725690000e-4
4.659349400989999e-4 4.729766449550000e-4 4.801247715520000e-4 4.873809282480001e-4
4.947467477090000e-4 5.022238872760000e-4 5.098140293360000e-4 5.175188817030000e-4
5.253401780019999e-4 5.332796780570000e-4 5.413391682900000e-4 5.495204621190000e-4
5.578254003709999e-4 5.662558516910000e-4 5.748137129670000e-4 5.835009097530000e-4
5.923193967050000e-4 6.012711580210000e-4 6.103582078840000e-4 6.195825909180000e-4
6.289463826490000e-4 6.384516899700000e-4 6.481006516150001e-4 6.578954386400000e-4
6.678382549150001e-4 6.779313376140000e-4 6.881769577240000e-4 6.985774205540000e-4
7.091350662490001e-4 7.198522703269999e-4 7.307314442020001e-4 7.417750357350000e-4
7.529855297810000e-4 7.643654487470000e-4 7.759173531640000e-4 7.876438422590002e-4
7.995475545410001e-4 8.116311683959999e-4 8.238974026879999e-4 8.363490173719999e-4
8.489888141120000e-4 8.618196369180000e-4 8.748443727780000e-4 8.880659523120002e-4
9.014873504330000e-4 9.151115870100000e-4 9.289417275550001e-4 9.429808839080000e-4
9.572322149380001e-4 9.716989272539999e-4 9.863842759290000e-4 1.001291565230000e-3
1.016424149350000e-3 1.031785433200000e-3 1.047378873120000e-3 1.063207977710000e-3
1.079276308570000e-3 1.095587481160000e-3 1.112145165560000e-3 1.128953087310000e-3
1.146015028260000e-3 1.163334827440000e-3 1.180916381850000e-3 1.198763647440000e-3
1.216880639900000e-3 1.235271435640000e-3 1.253940172670000e-3 1.272891051520000e-3
1.292128336230000e-3 1.311656355270000e-3 1.331479502520000e-3 1.351602238270000e-3
1.372029090240000e-3 1.392764654530000e-3 1.413813596750000e-3 1.435180652990000e-3
1.456870630930000e-3 1.478888410920000e-3 1.501238947030000e-3 1.523927268240000e-3
1.546958479520000e-3 1.570337762970000e-3 1.594070379050000e-3 1.618161667700000e-3
1.642617049540000e-3 1.667442027150000e-3 1.692642186250000e-3 1.718223196980000e-3
1.744190815180000e-3 1.770550883670000e-3 1.797309333580000e-3 1.824472185670000e-3
1.852045551700000e-3 1.880035635800000e-3 1.908448735840000e-3 1.937291244900000e-3
1.966569652670000e-3 1.996290546900000e-3 2.026460614930000e-3 2.057086645140000e-3
2.088175528530000e-3 2.119734260220000e-3 2.151769941060000e-3 2.184289779220000e-3
2.217301091790000e-3 2.250811306470000e-3 2.284827963180000e-3 2.319358715820000e-3
2.354411333960000e-3 2.389993704580000e-3 2.426113833870000e-3 2.462779849010000e-3
2.500000000000000e-3 2.537782661540000e-3 2.576136334880000e-3 2.615069649770000e-3
2.654591366360000e-3 2.694710377210000e-3 2.735435709260000e-3 2.776776525890000e-3
2.818742128950000e-3 2.861341960880000e-3 2.904585606820000e-3 2.948482796780000e-3
2.993043407800000e-3 3.038277466219999e-3 3.084195149890000e-3 3.130806790480000e-3
3.178122875800000e-3 3.226154052180000e-3 3.274911126830000e-3 3.324405070300001e-3
3.374647018940000e-3 3.425648277390001e-3 3.477420321159999e-3 3.529974799170000e-3
3.583323536400000e-3 3.637478536550000e-3 3.692451984709999e-3 3.748256250140000e-3
3.804903889050000e-3 3.862407647380000e-3 3.920780463730000e-3 3.980035472220000e-3
4.040186005480001e-3 4.101245597640000e-3 4.163227987360001e-3 4.226147120950000e-3
4.290017155459999e-3 4.354852461940000e-3 4.420667628580000e-3 4.487477464099999e-3
4.555297000980000e-3 4.624141498900000e-3 4.694026448160000e-3 4.764967573180000e-3
4.836980836010001e-3 4.910082439920000e-3 4.984288833110001e-3 5.059616712310000e-3
5.136083026610000e-3 5.213704981260000e-3 5.292500041530000e-3 5.372485936639999e-3
5.453680663750000e-3 5.536102492010000e-3 5.619769966690001e-3 5.704701913319999e-3
5.790917441950000e-3 5.878435951440000e-3 5.967277133810001e-3 6.057460978710000e-3
6.149007777890001e-3 6.241938129760001e-3 6.336272944040000e-3 6.432033446470000e-3
6.529241183560000e-3 6.627918027460000e-3 6.728086180869999e-3 6.829768182060000e-3
6.932986909909999e-3 7.037765589059999e-3 7.144127795159999e-3 7.252097460149999e-3
7.361698877660000e-3 7.472956708480000e-3 7.585895986089999e-3 7.700542122300000e-3
7.816920912969999e-3 7.935058543819999e-3 8.054981596319999e-3 8.176717053659999e-3
8.300292306839999e-3 8.425735160800000e-3 8.553073840720000e-3 8.682336998340000e-3
8.813553718410001e-3 8.946753525249999e-3 9.081966389380000e-3 9.219222734260001e-3
9.358553443149999e-3 9.499989866049997e-3 9.643563826739999e-3 9.789307629979998e-3
9.937254068740000e-3 1.008743643160000e-2 1.023988851020000e-2 1.039464460690000e-2
1.055173954250000e-2 1.071120866400000e-2 1.087308785270000e-2 1.103741353190000e-2
1.120422267580000e-2 1.137355281710000e-2 1.154544205570000e-2 1.171992906760000e-2
1.189705311280000e-2 1.207685404530000e-2 1.225937232080000e-2 1.244464900680000e-2
1.263272579140000e-2 1.282364499260000e-2 1.301744956790000e-2 1.321418312440000e-2
1.341388992780000e-2 1.361661491300000e-2 1.382240369410000e-2 1.403130257420000e-2
1.424335855670000e-2 1.445861935490000e-2 1.467713340350000e-2 1.489894986900000e-2
1.512411866100000e-2 1.535269044360000e-2 1.558471664630000e-2 1.582024947600000e-2
1.605934192860000e-2 1.630204780080000e-2 1.654842170260000e-2 1.679851906910000e-2
1.705239617320000e-2 1.731011013840000e-2 1.757171895150000e-2 1.783728147540000e-2
1.810685746290000e-2 1.838050756970000e-2 1.865829336830000e-2 1.894027736160000e-2
1.922652299720000e-2 1.951709468160000e-2 1.981205779460000e-2 2.011147870420000e-2
2.041542478140000e-2 2.072396441530000e-2 2.103716702860000e-2 2.135510309320000e-2
2.167784414620000e-2 2.200546280550000e-2 2.233803278670000e-2 2.267562891960000e-2
2.301832716470000e-2 2.336620463050000e-2 2.371933959090000e-2 2.407781150280000e-2
2.444170102380000e-2 2.481109003070000e-2 2.518606163750000e-2 2.556670021450000e-2
2.595309140680000e-2 2.634532215420000e-2 2.674348071030000e-2 2.714765666230000e-2
2.755794095160000e-2 2.797442589390000e-2 2.839720520000000e-2 2.882637399710000e-2
2.926202885000000e-2 2.970426778270000e-2 3.015319030110000e-2 3.060889741450000e-2
3.107149165890000e-2 3.154107712010000e-2 3.201775945670000e-2 3.250164592420000e-2
3.299284539910000e-2 3.349146840350000e-2 3.399762712960000e-2 3.451143546520000e-2
3.503300901930000e-2 3.556246514830000e-2 3.609992298200000e-2 3.664550345070000e-2
3.719932931220000e-2 3.776152517970000e-2 3.833221754979999e-2 3.891153483050000e-2
3.949960737070000e-2 4.009656748910000e-2 4.070254950450000e-2 4.131768976520000e-2
4.194212668030000e-2 4.257600075100000e-2 4.321945460140000e-2 4.387263301150000e-2
4.453568294900000e-2 4.520875360310000e-2 4.589199641750000e-2 4.658556512470000e-2
4.728961578060000e-2 4.800430679960000e-2 4.872979899010000e-2 4.946625559090000e-2
5.021384230800000e-2 5.097272735140001e-2 5.174308147350000e-2 5.252507800720000e-2
5.331889290510000e-2 5.412470477880000e-2 5.494269493940001e-2 5.577304743820001e-2
5.661594910790000e-2 5.747158960510000e-2 5.834016145240000e-2 5.922186008210000e-2
6.011688388020000e-2 6.102543423069999e-2 6.194771556150000e-2 6.288393538950000e-2
6.383430436839999e-2 6.479903633500000e-2 6.577834835820000e-2 6.677246078720001e-2
6.778159730160000e-2 6.880598496140000e-2 6.984585425810000e-2 7.090143916659999e-2
7.197297719810001e-2 7.306070945310000e-2 7.416488067590000e-2 7.528573930979999e-2
7.642353755259999e-2 7.757853141380000e-2 7.875098077190001e-2 7.994114943280000e-2
8.114930518969999e-2 8.237571988250000e-2 8.362066945990000e-2 8.488443404060000e-2
8.616729797710001e-2 8.746954991919999e-2 8.879148287910001e-2 9.013339429709999e-2
9.149558610920000e-2 9.287836481410000e-2 9.428204154300001e-2 9.570693212889999e-2
9.715335717829999e-2 9.862164214300000e-2 1.001121173930000e-1 1.016251182920000e-1
1.031609852720000e-1 1.047200639080000e-1 1.063027050000000e-1 1.079092646500000e-1
1.095401043390000e-1 1.111955910140000e-1 1.128760971660000e-1 1.145820009160000e-1
1.163136860990000e-1 1.180715423530000e-1 1.198559652020000e-1 1.216673561490000e-1
1.235061227640000e-1 1.253726787780000e-1 1.272674441730000e-1 1.291908452800000e-1
1.311433148730000e-1 1.331252922640000e-1 1.351372234080000e-1 1.371795609980000e-1
1.392527645670000e-1 1.413573005960000e-1 1.434936426140000e-1 1.456622713060000e-1
1.478636746250000e-1 1.500983478940000e-1 1.523667939240000e-1 1.546695231260000e-1
1.570070536230000e-1 1.593799113700000e-1 1.617886302690000e-1 1.642337522920000e-1
1.667158276020000e-1 1.692354146770000e-1 1.717930804350000e-1 1.743894003600000e-1
1.770249586360000e-1 1.797003482740000e-1 1.824161712490000e-1 1.851730386320000e-1
1.879715707300000e-1 1.908123972240000e-1 1.936961573130000e-1 1.966234998540000e-1
1.995950835130000e-1 2.026115769070000e-1 2.056736587610000e-1 2.087820180550000e-1
2.119373541850000e-1 2.151403771130000e-1 2.183918075340000e-1 2.216923770320000e-1
2.250428282510000e-1 2.284439150560000e-1 2.318964027050000e-1 2.354010680240000e-1
2.389586995750000e-1 2.425700978420000e-1 2.462360754050000e-1 2.499574571230000e-1
2.537350803240000e-1 2.575697949880000e-1 2.614624639430000e-1 2.654139630550000e-1
2.694251814290000e-1 2.734970216050000e-1 2.776303997640000e-1 2.818262459350000e-1
2.860855042000000e-1 2.904091329110000e-1 2.947981049020000e-1 2.992534077100000e-1
3.037760437970000e-1 3.083670307750000e-1 3.130274016370000e-1 3.177582049840000e-1
3.225605052680000e-1 3.274353830270000e-1 3.323839351280000e-1 3.374072750170000e-1
3.425065329660000e-1 3.476828563300000e-1 3.529374098040000e-1 3.582713756830000e-1
3.636859541340000e-1 3.691823634590000e-1 3.747618403730000e-1 3.804256402820000e-1
3.861750375650000e-1 3.920113258600000e-1 3.979358183580000e-1 4.039498480940000e-1
4.100547682500000e-1 4.162519524580000e-1 4.225427951120000e-1 4.289287116780000e-1
4.354111390130000e-1 4.419915356910000e-1 4.486713823300000e-1 4.554521819220000e-1
4.623354601770000e-1 4.693227658600000e-1 4.764156711470000e-1 4.836157719690000e-1
4.909246883790000e-1 4.983440649159999e-1 5.058755709700000e-1 5.135209011620000e-1
5.212817757230001e-1 5.291599408820000e-1 5.371571692610000e-1 5.452752602690000e-1
5.535160405100000e-1 5.618813641970000e-1 5.703731135600000e-1 5.789931992800001e-1
5.877435609130000e-1 5.966261673270000e-1 6.056430171450000e-1 6.147961391970000e-1
6.240875929740000e-1 6.335194690930001e-1 6.430938897639999e-1 6.528130092740000e-1
6.626790144659999e-1 6.726941252310001e-1 6.828605950120000e-1 6.931807113080000e-1
7.036567961880000e-1 7.142912068160000e-1 7.250863359789999e-1 7.360446126270000e-1
7.471685024180000e-1 7.584605082740000e-1 7.699231709439999e-1 7.815590695750000e-1
7.933708222950000e-1 8.053610867960000e-1 8.175325609400000e-1 8.298879833590000e-1
8.424301340750000e-1 8.551618351260000e-1 8.680859511970000e-1 8.812053902690000e-1
8.945231042720000e-1 9.080420897469999e-1 9.217653885230000e-1 9.356960884010000e-1
9.498373238450000e-1 9.641922766950000e-1 9.787641768749999e-1 9.935563031230000e-1
1.008571983730000e0 1.023814597290000e0 1.039287573450000e0 1.054994393710000e0
1.070938592150000e0 1.087123756290000e0 1.103553527860000e0 1.120231603640000e0
1.137161736250000e0 1.154347735050000e0 1.171793466960000e0 1.189502857340000e0
1.207479890880000e0 1.225728612500000e0 1.244253128220000e0 1.263057606140000e0
1.282146277360000e0 1.301523436890000e0 1.321193444690000e0 1.341160726590000e0
1.361429775310000e0 1.382005151480000e0 1.402891484630000e0 1.424093474290000e0
1.445615890980000e0 1.467463577350000e0 1.489641449220000e0
</PP_RAB>
</PP_MESH>
<PP_LOCAL columns="4">
-2.248946530450000e1 -2.217016406940000e1 -2.183353639040000e1 -2.149360539980000e1
-2.115213254160000e1 -2.080794886110000e1 -2.046296032370000e1 -2.011782717180000e1
-1.977327686450000e1 -1.943028818880000e1 -1.908718743230000e1 -1.875531735560000e1
-1.840587008700000e1 -1.808828951420000e1 -1.776214653930000e1 -1.743461735360000e1
-1.712039247430000e1 -1.680709869730000e1 -1.650444087120000e1 -1.621332200860000e1
-1.591677438570000e1 -1.563970805910000e1 -1.536170240780000e1 -1.509647837620000e1
-1.483667162150000e1 -1.458971969520000e1 -1.434221569660000e1 -1.411354587120000e1
-1.388628561250000e1 -1.367044126680000e1 -1.346163803840000e1 -1.326208208680000e1
-1.307002933560000e1 -1.288858665120000e1 -1.271051676350000e1 -1.254642502670000e1
-1.237989407690000e1 -1.224117671160000e1 -1.208375382040000e1 -1.195653341400000e1
-1.182136884350000e1 -1.170288757450000e1 -1.157525190420000e1 -1.148178943680000e1
-1.135682283890000e1 -1.127961723470000e1 -1.117633081680000e1 -1.108547478870000e1
-1.101621962370000e1 -1.093536803820000e1 -1.085568197910000e1 -1.079452337900000e1
-1.073234393930000e1 -1.066983862540000e1 -1.061998949700000e1 -1.056321664690000e1
-1.051720250700000e1 -1.047118971600000e1 -1.043421173830000e1 -1.039139002340000e1
-1.035668269110000e1 -1.032166437510000e1 -1.029463343280000e1 -1.026253995400000e1
-1.023802661000000e1 -1.021133665490000e1 -1.019072889150000e1 -1.016826565690000e1
-1.014974623180000e1 -1.013139006280000e1 -1.011480335840000e1 -1.009889044150000e1
-1.008547690780000e1 -1.007193284360000e1 -1.006014927880000e1 -1.004927309730000e1
-1.003822802150000e1 -1.002938380450000e1 -1.002025954860000e1 -1.001225718960000e1
-1.000454056550000e1 -9.997709785790001e0 -9.991188605000000e0 -9.985332374160000e0
-9.979413802790001e0 -9.974496066490000e0 -9.969397064100001e0 -9.965191187709999e0
-9.960381464310000e0 -9.956875527779999e0 -9.952863775280001e0 -9.949283029289999e0
-9.946047776850000e0 -9.942653857690001e0 -9.939736529930000e0 -9.936725744380000e0
-9.934028591670000e0 -9.931239547670000e0 -9.928751370610000e0 -9.926165925779999e0
-9.923842690710000e0 -9.921383636660000e0 -9.919184108380000e0 -9.916941399050000e0
-9.914710794900000e0 -9.912606051919999e0 -9.910677488370000e0 -9.907088815950001e0
-9.908031824349999e0 -9.904168438590000e0 -9.901904301560000e0 -9.900803573590000e0
-9.899797354360000e0 -9.895286764930001e0 -9.895281877040000e0 -9.892939562530000e0
-9.890350945100000e0 -9.889871975229999e0 -9.888820048050000e0 -9.882903070790000e0