<UPF version="2.0.1">
<PP_INFO>
Generated by new atomic code, or converted to UPF format
Author:
Generation date:
Pseudopotential type: US
Element: C
Functional:  SLA  PZ   NOGX NOGC
Suggested minimum cutoff for wavefunctions:   0. Ry
Suggested minimum cutoff for charge density:   0. Ry
The Pseudo was generated with a Non-Relativistic Calculation
L component and cutoff radius for Local Potential:  0   0.0000
Valence configuration:
nl pn  l   occ       Rcut    Rcut US       E pseu
2S  0  0  2.00      1.300      1.600     0.000000
2P  0  1  2.00      1.300      1.600     0.000000
Generation configuration: not available.
</PP_INFO>
<!--
END OF HUMAN READABLE SECTION
-->
<PP_HEADER generated="Generated by new atomic code, or converted to UPF format" author="" date="" comment="" element="C " pseudo_type="US" relativistic="no" is_ultrasoft="true" is_paw="false" is_coulomb="false" has_so="false" has_wfc="false" has_gipaw="false" paw_as_gipaw="false" core_correction="false" functional=" SLA  PZ   NOGX NOGC" z_valence="4.000000000000e0" total_psenergy="-1.068218164300e1" wfc_cutoff="0.000000000000e0" rho_cutoff="0.000000000000e0" l_max="2" l_max_rho="0" l_local="0" mesh_size="1425" number_of_wfc="2" number_of_proj="4"/>
<PP_MESH dx="8.000000000002e-3" mesh="1425" xmin="-5.000000000004e0" rmax="9.950824755920e1" zmesh="6.000000000000e0">
<PP_R>
1.122991166510000e-3 1.132011127580000e-3 1.141103537750000e-3 1.150268978940000e-3
1.159508037730000e-3 1.168821305430000e-3 1.178209378100000e-3 1.187672856560000e-3
1.197212346500000e-3 1.206828458430000e-3 1.216521807800000e-3 1.226293014980000e-3
1.236142705330000e-3 1.246071509230000e-3 1.256080062140000e-3 1.266169004600000e-3
1.276338982300000e-3 1.286590646140000e-3 1.296924652220000e-3 1.307341661920000e-3
1.317842341930000e-3 1.328427364300000e-3 1.339097406480000e-3 1.349853151350000e-3
1.360695287280000e-3 1.371624508170000e-3 1.382641513500000e-3 1.393747008360000e-3
1.404941703500000e-3 1.416226315390000e-3 1.427601566250000e-3 1.439068184100000e-3
1.450626902800000e-3 1.462278462120000e-3 1.474023607750000e-3 1.485863091410000e-3
1.497797670800000e-3 1.509828109760000e-3 1.521955178240000e-3 1.534179652360000e-3
1.546502314510000e-3 1.558923953330000e-3 1.571445363820000e-3 1.584067347350000e-3
1.596790711730000e-3 1.609616271260000e-3 1.622544846780000e-3 1.635577265720000e-3
1.648714362170000e-3 1.661956976900000e-3 1.675305957440000e-3 1.688762158130000e-3
1.702326440190000e-3 1.715999671710000e-3 1.729782727800000e-3 1.743676490570000e-3
1.757681849240000e-3 1.771799700140000e-3 1.786030946830000e-3 1.800376500100000e-3
1.814837278090000e-3 1.829414206290000e-3 1.844108217610000e-3 1.858920252500000e-3
1.873851258910000e-3 1.888902192440000e-3 1.904074016360000e-3 1.919367701670000e-3
1.934784227160000e-3 1.950324579510000e-3 1.965989753290000e-3 1.981780751090000e-3
1.997698583530000e-3 2.013744269370000e-3 2.029918835520000e-3 2.046223317180000e-3
2.062658757820000e-3 2.079226209330000e-3 2.095926732030000e-3 2.112761394750000e-3
2.129731274920000e-3 2.146837458620000e-3 2.164081040660000e-3 2.181463124610000e-3
2.198984822950000e-3 2.216647257070000e-3 2.234451557380000e-3 2.252398863340000e-3
2.270490323600000e-3 2.288727096020000e-3 2.307110347750000e-3 2.325641255330000e-3
2.344321004740000e-3 2.363150791500000e-3 2.382131820720000e-3 2.401265307190000e-3
2.420552475450000e-3 2.439994559900000e-3 2.459592804840000e-3 2.479348464550000e-3
2.499262803410000e-3 2.519337095950000e-3 2.539572626920000e-3 2.559970691400000e-3
2.580532594879999e-3 2.601259653330001e-3 2.622153193280000e-3 2.643214551940000e-3
2.664445077230000e-3 2.685846127910000e-3 2.707419073660000e-3 2.729165295150000e-3
2.751086184160000e-3 2.773183143620000e-3 2.795457587750000e-3 2.817910942120000e-3
2.840544643750000e-3 2.863360141210000e-3 2.886358894690000e-3 2.909542376130000e-3
2.932912069270000e-3 2.956469469790000e-3 2.980216085359999e-3 3.004153435780000e-3
3.028283053040000e-3 3.052606481460000e-3 3.077125277730000e-3 3.101841011060000e-3
3.126755263290000e-3 3.151869628910000e-3 3.177185715270000e-3 3.202705142600000e-3
3.228429544150000e-3 3.254360566290000e-3 3.280499868620001e-3 3.306849124059999e-3
3.333410018980000e-3 3.360184253270000e-3 3.387173540500000e-3 3.414379608000000e-3
3.441804196950000e-3 3.469449062550000e-3 3.497315974070000e-3 3.525406715010000e-3
3.553723083190000e-3 3.582266890850000e-3 3.611039964810000e-3 3.640044146569999e-3
3.669281292400000e-3 3.698753273480000e-3 3.728461976030000e-3 3.758409301420000e-3
3.788597166290000e-3 3.819027502670000e-3 3.849702258110000e-3 3.880623395820000e-3
3.911792894740000e-3 3.943212749750000e-3 3.974884971710001e-3 4.006811587680001e-3
4.038994640949999e-3 4.071436191260000e-3 4.104138314869999e-3 4.137103104740000e-3
4.170332670610001e-3 4.203829139200000e-3 4.237594654300000e-3 4.271631376890000e-3
4.305941485350001e-3 4.340527175540000e-3 4.375390660950000e-3 4.410534172849999e-3
4.445959960450000e-3 4.481670291000000e-3 4.517667449980000e-3 4.553953741220001e-3
4.590531487050001e-3 4.627403028460001e-3 4.664570725250000e-3 4.702036956150000e-3
4.739804119030000e-3 4.777874630990000e-3 4.816250928550001e-3 4.854935467820000e-3
4.893930724620000e-3 4.933239194650000e-3 4.972863393670001e-3 5.012805857650000e-3
5.053069142919999e-3 5.093655826330000e-3 5.134568505460000e-3 5.175809798720000e-3
5.217382345580001e-3 5.259288806690000e-3 5.301531864070000e-3 5.344114221310001e-3
5.387038603680000e-3 5.430307758360000e-3 5.473924454590000e-3 5.517891483849999e-3
5.562211660049999e-3 5.606887819700001e-3 5.651922822080000e-3 5.697319549450000e-3
5.743080907220000e-3 5.789209824119999e-3 5.835709252430000e-3 5.882582168130001e-3
5.929831571089999e-3 5.977460485289999e-3 6.025471959010000e-3 6.073869064990001e-3
6.122654900660000e-3 6.171832588330000e-3 6.221405275400000e-3 6.271376134530000e-3
6.321748363870000e-3 6.372525187270001e-3 6.423709854449999e-3 6.475305641249999e-3
6.527315849830001e-3 6.579743808850001e-3 6.632592873720000e-3 6.685866426800001e-3
6.739567877610000e-3 6.793700663059999e-3 6.848268247680000e-3 6.903274123800001e-3
6.958721811820000e-3 7.014614860410000e-3 7.070956846750000e-3 7.127751376740000e-3
7.185002085250001e-3 7.242712636350000e-3 7.300886723530001e-3 7.359528069950000e-3
7.418640428680000e-3 7.478227582930000e-3 7.538293346289999e-3 7.598841563010001e-3
7.659876108170000e-3 7.721400888030000e-3 7.783419840170001e-3 7.845936933840001e-3
7.908956170160000e-3 7.972481582370000e-3 8.036517236120000e-3 8.101067229709999e-3
8.166135694379999e-3 8.231726794520000e-3 8.297844727979999e-3 8.364493726330000e-3
8.431678055140001e-3 8.499402014230000e-3 8.567669937940002e-3 8.636486195450001e-3
8.705855191029999e-3 8.775781364309999e-3 8.846269190599999e-3 8.917323181130000e-3
8.988947883389999e-3 9.061147881389999e-3 9.133927795940000e-3 9.207292284980001e-3
9.281246043880000e-3 9.355793805690000e-3 9.430940341500001e-3 9.506690460709999e-3
9.583049011349999e-3 9.660020880399999e-3 9.737610994079999e-3 9.815824318200001e-3
9.894665858410001e-3 9.974140660620002e-3 1.005425381120000e-2 1.013501043750000e-2
1.021641570800000e-2 1.029847483250000e-2 1.038119306290000e-2 1.046457569320000e-2
1.054862805990000e-2 1.063335554250000e-2 1.071876356340000e-2 1.080485758880000e-2
1.089164312880000e-2 1.097912573770000e-2 1.106731101440000e-2 1.115620460280000e-2
1.124581219210000e-2 1.133613951720000e-2 1.142719235900000e-2 1.151897654510000e-2
1.161149794970000e-2 1.170476249400000e-2 1.179877614720000e-2 1.189354492610000e-2
1.198907489590000e-2 1.208537217050000e-2 1.218244291320000e-2 1.228029333630000e-2
1.237892970240000e-2 1.247835832420000e-2 1.257858556520000e-2 1.267961784000000e-2
1.278146161470000e-2 1.288412340720000e-2 1.298760978810000e-2 1.309192738040000e-2
1.319708286050000e-2 1.330308295850000e-2 1.340993445830000e-2 1.351764419840000e-2
1.362621907240000e-2 1.373566602910000e-2 1.384599207310000e-2 1.395720426540000e-2
1.406930972340000e-2 1.418231562210000e-2 1.429622919380000e-2 1.441105772910000e-2
1.452680857700000e-2 1.464348914560000e-2 1.476110690250000e-2 1.487966937530000e-2
1.499918415200000e-2 1.511965888160000e-2 1.524110127450000e-2 1.536351910310000e-2
1.548692020220000e-2 1.561131246950000e-2 1.573670386610000e-2 1.586310241710000e-2
1.599051621200000e-2 1.611895340550000e-2 1.624842221750000e-2 1.637893093410000e-2
1.651048790780000e-2 1.664310155840000e-2 1.677678037320000e-2 1.691153290760000e-2
1.704736778590000e-2 1.718429370160000e-2 1.732231941790000e-2 1.746145376860000e-2
1.760170565830000e-2 1.774308406320000e-2 1.788559803150000e-2 1.802925668420000e-2
1.817406921550000e-2 1.832004489340000e-2 1.846719306040000e-2 1.861552313410000e-2
1.876504460760000e-2 1.891576705040000e-2 1.906770010870000e-2 1.922085350630000e-2
1.937523704520000e-2 1.953086060580000e-2 1.968773414810000e-2 1.984586771220000e-2
2.000527141860000e-2 2.016595546910000e-2 2.032793014770000e-2 2.049120582080000e-2
2.065579293810000e-2 2.082170203310000e-2 2.098894372420000e-2 2.115752871480000e-2
2.132746779450000e-2 2.149877183940000e-2 2.167145181310000e-2 2.184551876700000e-2
2.202098384170000e-2 2.219785826680000e-2 2.237615336240000e-2 2.255588053940000e-2
2.273705130060000e-2 2.291967724070000e-2 2.310377004800000e-2 2.328934150450000e-2
2.347640348680000e-2 2.366496796700000e-2 2.385504701310000e-2 2.404665279050000e-2
2.423979756180000e-2 2.443449368840000e-2 2.463075363100000e-2 2.482858995010000e-2
2.502801530760000e-2 2.522904246650000e-2 2.543168429280000e-2 2.563595375560000e-2
2.584186392810000e-2 2.604942798880000e-2 2.625865922170000e-2 2.646957101780000e-2
2.668217687550000e-2 2.689649040160000e-2 2.711252531230000e-2 2.733029543380000e-2
2.754981470360000e-2 2.777109717090000e-2 2.799415699790000e-2 2.821900846060000e-2
2.844566594940000e-2 2.867414397050000e-2 2.890445714660000e-2 2.913662021790000e-2
2.937064804279999e-2 2.960655559920000e-2 2.984435798520000e-2 3.008407042040000e-2
3.032570824630000e-2 3.056928692800000e-2 3.081482205440000e-2 3.106232933990000e-2
3.131182462510000e-2 3.156332387780000e-2 3.181684319400000e-2 3.207239879900000e-2
3.233000704850000e-2 3.258968442940000e-2 3.285144756129999e-2 3.311531319710000e-2
3.338129822420000e-2 3.364941966580000e-2 3.391969468170000e-2 3.419214056970000e-2
3.446677476630000e-2 3.474361484830000e-2 3.502267853350000e-2 3.530398368200000e-2
3.558754829760000e-2 3.587339052840000e-2 3.616152866850000e-2 3.645198115870000e-2
3.674476658820000e-2 3.703990369520000e-2 3.733741136880000e-2 3.763730864940000e-2
3.793961473060000e-2 3.824434896020001e-2 3.855153084110000e-2 3.886118003309999e-2
3.917331635390000e-2 3.948795978040000e-2 3.980513044970000e-2 4.012484866100000e-2
4.044713487630000e-2 4.077200972200000e-2 4.109949399030000e-2 4.142960864020000e-2
4.176237479920000e-2 4.209781376440000e-2 4.243594700410000e-2 4.277679615890000e-2
4.312038304330001e-2 4.346672964690001e-2 4.381585813600000e-2 4.416779085500000e-2
4.452255032760000e-2 4.488015925870000e-2 4.524064053540000e-2 4.560401722840000e-2
4.597031259410000e-2 4.633955007550000e-2 4.671175330400001e-2 4.708694610059999e-2
4.746515247780000e-2 4.784639664100000e-2 4.823070298980000e-2 4.861809612020000e-2
4.900860082530000e-2 4.940224209760000e-2 4.979904513020000e-2 5.019903531870000e-2
5.060223826260000e-2 5.100867976700000e-2 5.141838584439999e-2 5.183138271600000e-2
5.224769681380001e-2 5.266735478199999e-2 5.309038347890001e-2 5.351680997840001e-2
5.394666157210000e-2 5.437996577049999e-2 5.481675030530000e-2 5.525704313080000e-2
5.570087242600000e-2 5.614826659589999e-2 5.659925427419999e-2 5.705386432400000e-2
5.751212584059999e-2 5.797406815280000e-2 5.843972082530000e-2 5.890911365979999e-2
5.938227669770000e-2 5.985924022160001e-2 6.034003475720001e-2 6.082469107570000e-2
6.131324019520000e-2 6.180571338299999e-2 6.230214215760000e-2 6.280255829049999e-2
6.330699380860000e-2 6.381548099590000e-2 6.432805239570000e-2 6.484474081289999e-2
6.536557931560000e-2 6.589060123770000e-2 6.641984018080000e-2 6.695333001629999e-2
6.749110488780000e-2 6.803319921300000e-2 6.857964768620000e-2 6.913048528029999e-2
6.968574724900000e-2 7.024546912930001e-2 7.080968674370000e-2 7.137843620210001e-2
7.195175390480001e-2 7.252967654440000e-2 7.311224110800001e-2 7.369948488000000e-2
7.429144544419999e-2 7.488816068619998e-2 7.548966879609999e-2 7.609600827060000e-2
7.670721791550000e-2 7.732333684860000e-2 7.794440450169999e-2 7.857046062320000e-2
7.920154528099999e-2 7.983769886479999e-2 8.047896208850000e-2 8.112537599330000e-2
8.177698194990001e-2 8.243382166120000e-2 8.309593716520000e-2 8.376337083760001e-2
8.443616539430000e-2 8.511436389440000e-2 8.579800974279999e-2 8.648714669320000e-2
8.718181885040000e-2 8.788207067380000e-2 8.858794697980001e-2 8.929949294460000e-2
9.001675410739999e-2 9.073977637320001e-2 9.146860601570001e-2 9.220328968010000e-2
9.294387438659999e-2 9.369040753280000e-2 9.444293689700000e-2 9.520151064149999e-2
9.596617731509999e-2 9.673698585680000e-2 9.751398559860000e-2 9.829722626879999e-2
9.908675799499999e-2 9.988263130760000e-2 1.006848971430000e-1 1.014936068450000e-1
1.023088121740000e-1 1.031305653010000e-1 1.039589188200000e-1 1.047939257450000e-1
1.056356395160000e-1 1.064841140050000e-1 1.073394035140000e-1 1.082015627810000e-1
1.090706469850000e-1 1.099467117470000e-1 1.108298131370000e-1 1.117200076730000e-1
1.126173523270000e-1 1.135219045300000e-1 1.144337221740000e-1 1.153528636150000e-1
1.162793876790000e-1 1.172133536630000e-1 1.181548213420000e-1 1.191038509690000e-1
1.200605032840000e-1 1.210248395120000e-1 1.219969213710000e-1 1.229768110750000e-1
1.239645713370000e-1 1.249602653730000e-1 1.259639569090000e-1 1.269757101820000e-1
1.279955899430000e-1 1.290236614650000e-1 1.300599905460000e-1 1.311046435110000e-1
1.321576872180000e-1 1.332191890620000e-1 1.342892169790000e-1 1.353678394520000e-1
1.364551255130000e-1 1.375511447490000e-1 1.386559673040000e-1 1.397696638900000e-1
1.408923057810000e-1 1.420239648280000e-1 1.431647134570000e-1 1.443146246770000e-1
1.454737720810000e-1 1.466422298570000e-1 1.478200727860000e-1 1.490073762500000e-1
1.502042162370000e-1 1.514106693450000e-1 1.526268127870000e-1 1.538527243980000e-1
1.550884826350000e-1 1.563341665880000e-1 1.575898559820000e-1 1.588556311800000e-1
1.601315731920000e-1 1.614177636800000e-1 1.627142849600000e-1 1.640212200090000e-1
1.653386524730000e-1 1.666666666670000e-1 1.680053475840000e-1 1.693547809010000e-1
1.707150529820000e-1 1.720862508840000e-1 1.734684623650000e-1 1.748617758870000e-1
1.762662806230000e-1 1.776820664600000e-1 1.791092240110000e-1 1.805478446120000e-1
1.819980203380000e-1 1.834598439990000e-1 1.849334091530000e-1 1.864188101080000e-1
1.879161419300000e-1 1.894255004500000e-1 1.909469822660000e-1 1.924806847540000e-1
1.940267060720000e-1 1.955851451650000e-1 1.971561017750000e-1 1.987396764420000e-1
2.003359705160000e-1 2.019450861610000e-1 2.035671263600000e-1 2.052021949250000e-1
2.068503965000000e-1 2.085118365710000e-1 2.101866214710000e-1 2.118748583870000e-1
2.135766553660000e-1 2.152921213230000e-1 2.170213660500000e-1 2.187645002190000e-1
2.205216353900000e-1 2.222928840210000e-1 2.240783594720000e-1 2.258781760150000e-1
2.276924488380000e-1 2.295212940560000e-1 2.313648287150000e-1 2.332231708020000e-1
2.350964392510000e-1 2.369847539530000e-1 2.388882357600000e-1 2.408070064960000e-1
2.427411889620000e-1 2.446909069470000e-1 2.466562852340000e-1 2.486374496070000e-1
2.506345268620000e-1 2.526476448120000e-1 2.546769322970000e-1 2.567225191940000e-1
2.587845364190000e-1 2.608631159420000e-1 2.629583907940000e-1 2.650704950730000e-1
2.671995639540000e-1 2.693457336990000e-1 2.715091416620000e-1 2.736899263030000e-1
2.758882271930000e-1 2.781041850230000e-1 2.803379416160000e-1 2.825896399340000e-1
2.848594240840000e-1 2.871474393350000e-1 2.894538321200000e-1 2.917787500490000e-1
2.941223419180000e-1 2.964847577170000e-1 2.988661486420000e-1 3.012666671020000e-1
3.036864667320000e-1 3.061257023990000e-1 3.085845302160000e-1 3.110631075480000e-1
3.135615930250000e-1 3.160801465510000e-1 3.186189293140000e-1 3.211781037980000e-1
3.237578337890000e-1 3.263582843930000e-1 3.289796220380000e-1 3.316220144920000e-1
3.342856308670000e-1 3.369706416370000e-1 3.396772186430000e-1 3.424055351070000e-1
3.451557656420000e-1 3.479280862640000e-1 3.507226744030000e-1 3.535397089120000e-1
3.563793700830000e-1 3.592418396550000e-1 3.621273008280000e-1 3.650359382720000e-1
3.679679381400000e-1 3.709234880820000e-1 3.739027772540000e-1 3.769059963310000e-1
3.799333375210000e-1 3.829849945740000e-1 3.860611627970000e-1 3.891620390660000e-1
3.922878218390000e-1 3.954387111660000e-1 3.986149087060000e-1 4.018166177360000e-1
4.050440431670000e-1 4.082973915550000e-1 4.115768711150000e-1 4.148826917350000e-1
4.182150649890001e-1 4.215742041510000e-1 4.249603242050000e-1 4.283736418650000e-1
4.318143755840000e-1 4.352827455710000e-1 4.387789738010000e-1 4.423032840369999e-1
4.458559018330000e-1 4.494370545590000e-1 4.530469714100000e-1 4.566858834220000e-1
4.603540234860001e-1 4.640516263650000e-1 4.677789287060000e-1 4.715361690590000e-1
4.753235878870000e-1 4.791414275870000e-1 4.829899325020000e-1 4.868693489380000e-1
4.907799251780000e-1 4.947219115000000e-1 4.986955601940000e-1 5.027011255740001e-1
5.067388639980001e-1 5.108090338820000e-1 5.149118957190000e-1 5.190477120920000e-1
5.232167476970000e-1 5.274192693510001e-1 5.316555460190000e-1 5.359258488240000e-1
5.402304510660000e-1 5.445696282400000e-1 5.489436580580001e-1 5.533528204560000e-1
5.577973976240001e-1 5.622776740160001e-1 5.667939363710000e-1 5.713464737310000e-1
5.759355774600000e-1 5.805615412640000e-1 5.852246612030000e-1 5.899252357210000e-1
5.946635656560000e-1 5.994399542620000e-1 6.042547072290000e-1 6.091081327039999e-1
6.140005413070000e-1 6.189322461540000e-1 6.239035628770000e-1 6.289148096400000e-1
6.339663071660000e-1 6.390583787520000e-1 6.441913502930000e-1 6.493655502990000e-1
6.545813099230000e-1 6.598389629740000e-1 6.651388459430000e-1 6.704812980260000e-1
6.758666611410000e-1 6.812952799530000e-1 6.867675018950000e-1 6.922836771920000e-1
6.978441588799999e-1 7.034493028330000e-1 7.090994677809999e-1 7.147950153369999e-1
7.205363100190000e-1 7.263237192699999e-1 7.321576134859999e-1 7.380383660410001e-1
7.439663533020000e-1 7.499419546640000e-1 7.559655525670000e-1 7.620375325239999e-1
7.681582831420000e-1 7.743281961530000e-1 7.805476664330000e-1 7.868170920300001e-1
7.931368741900000e-1 7.995074173800000e-1 8.059291293170000e-1 8.124024209940000e-1
8.189277067039999e-1 8.255054040660001e-1 8.321359340559999e-1 8.388197210290000e-1
8.455571927510000e-1 8.523487804220000e-1 8.591949187059999e-1 8.660960457580000e-1
8.730526032520000e-1 8.800650364110000e-1 8.871337940329999e-1 8.942593285200001e-1
9.014420959100001e-1 9.086825559010000e-1 9.159811718869999e-1 9.233384109799999e-1
9.307547440460000e-1 9.382306457340000e-1 9.457665945030001e-1 9.533630726570001e-1
9.610205663730000e-1 9.687395657340000e-1 9.765205647569999e-1 9.843640614300000e-1
9.922705577389999e-1 1.000240559700000e0 1.008274577400000e0 1.016373125020000e0
1.024536720860000e0 1.032765887410000e0 1.041061151320000e0 1.049423043500000e0
1.057852099120000e0 1.066348857630000e0 1.074913862830000e0 1.083547662890000e0
1.092250810370000e0 1.101023862270000e0 1.109867380070000e0 1.118781929770000e0
1.127768081890000e0 1.136826411550000e0 1.145957498490000e0 1.155161927100000e0
1.164440286470000e0 1.173793170420000e0 1.183221177530000e0 1.192724911190000e0
1.202304979660000e0 1.211961996060000e0 1.221696578440000e0 1.231509349820000e0
1.241400938220000e0 1.251371976700000e0 1.261423103410000e0 1.271554961640000e0
1.281768199810000e0 1.292063471590000e0 1.302441435870000e0 1.312902756850000e0
1.323448104050000e0 1.334078152380000e0 1.344793582170000e0 1.355595079210000e0
1.366483334800000e0 1.377459045780000e0 1.388522914610000e0 1.399675649390000e0
1.410917963880000e0 1.422250577610000e0 1.433674215860000e0 1.445189609740000e0
1.456797496260000e0 1.468498618310000e0 1.480293724780000e0 1.492183570550000e0
1.504168916570000e0 1.516250529920000e0 1.528429183830000e0 1.540705657720000e0
1.553080737300000e0 1.565555214570000e0 1.578129887920000e0 1.590805562120000e0
1.603583048410000e0 1.616463164570000e0 1.629446734920000e0 1.642534590420000e0
1.655727568700000e0 1.669026514100000e0 1.682432277770000e0 1.695945717680000e0
1.709567698690000e0 1.723299092630000e0 1.737140778290000e0 1.751093641550000e0
1.765158575410000e0 1.779336480010000e0 1.793628262760000e0 1.808034838330000e0
1.822557128750000e0 1.837196063440000e0 1.851952579310000e0 1.866827620780000e0
1.881822139850000e0 1.896937096180000e0 1.912173457130000e0 1.927532197840000e0
1.943014301260000e0 1.958620758270000e0 1.974352567670000e0 1.990210736310000e0
2.006196279110000e0 2.022310219170000e0 2.038553587760000e0 2.054927424480000e0
2.071432777260000e0 2.088070702450000e0 2.104842264870000e0 2.121748537910000e0
2.138790603590000e0 2.155969552590000e0 2.173286484380000e0 2.190742507250000e0
2.208338738390000e0 2.226076303950000e0 2.243956339170000e0 2.261979988350000e0
2.280148405030000e0 2.298462751980000e0 2.316924201330000e0 2.335533934620000e0
2.354293142880000e0 2.373203026710000e0 2.392264796340000e0 2.411479671730000e0
2.430848882650000e0 2.450373668720000e0 2.470055279540000e0 2.489894974750000e0
2.509894024080000e0 2.530053707490000e0 2.550375315200000e0 2.570860147800000e0
2.591509516330000e0 2.612324742350000e0 2.633307158040000e0 2.654458106300000e0
2.675778940770000e0 2.697271026020000e0 2.718935737530000e0 2.740774461850000e0
2.762788596680000e0 2.784979550910000e0 2.807348744790000e0 2.829897609950000e0
2.852627589520000e0 2.875540138240000e0 2.898636722500000e0 2.921918820500000e0
2.945387922300000e0 2.969045529940000e0 2.992893157500000e0 3.016932331240000e0
3.041164589690000e0 3.065591483710000e0 3.090214576620000e0 3.115035444330000e0
3.140055675370000e0 3.165276871040000e0 3.190700645510000e0 3.216328625920000e0
3.242162452450000e0 3.268203778490000e0 3.294454270680000e0 3.320915609070000e0
3.347589487200000e0 3.374477612190000e0 3.401581704910000e0 3.428903500010000e0
3.456444746110000e0 3.484207205850000e0 3.512192656040000e0 3.540402887760000e0
3.568839706480000e0 3.597504932150000e0 3.626400399370000e0 3.655527957450000e0
3.684889470560000e0 3.714486817870000e0 3.744321893590000e0 3.774396607200000e0
3.804712883470000e0 3.835272662670000e0 3.866077900630000e0 3.897130568890000e0
3.928432654840000e0 3.959986161830000e0 3.991793109270000e0 4.023855532840000e0
4.056175484540000e0 4.088755032850000e0 4.121596262880000e0 4.154701276480000e0
4.188072192380000e0 4.221711146320000e0 4.255620291230000e0 4.289801797280000e0
4.324257852110000e0 4.358990660920000e0 4.394002446620000e0 4.429295449980000e0
4.464871929760000e0 4.500734162860000e0 4.536884444490000e0 4.573325088270000e0
4.610058426420000e0 4.647086809880000e0 4.684412608480000e0 4.722038211090000e0
4.759966025760000e0 4.798198479870000e0 4.836738020330000e0 4.875587113670000e0
4.914748246250000e0 4.954223924400000e0 4.994016674570000e0 5.034129043510000e0
5.074563598420000e0 5.115322927140000e0 5.156409638280000e0 5.197826361380000e0
5.239575747160000e0 5.281660467560000e0 5.324083216040000e0 5.366846707670000e0
5.409953679310000e0 5.453406889840000e0 5.497209120270000e0 5.541363173950000e0
5.585871876780000e0 5.630738077310000e0 5.675964647000000e0 5.721554480360000e0
5.767510495160000e0 5.813835632610000e0 5.860532857520000e0 5.907605158530000e0
5.955055548290000e0 6.002887063640000e0 6.051102765800000e0 6.099705740610000e0
6.148699098670000e0 6.198085975570000e0 6.247869532090000e0 6.298052954390000e0
6.348639454230000e0 6.399632269170000e0 6.451034662750000e0 6.502849924750000e0
6.555081371370000e0 6.607732345430000e0 6.660806216620000e0 6.714306381680000e0
6.768236264640000e0 6.822599317030000e0 6.877399018100000e0 6.932638875060000e0
6.988322423280000e0 7.044453226510000e0 7.101034877160000e0 7.158070996460000e0
7.215565234750000e0 7.273521271680000e0 7.331942816450000e0 7.390833608060000e0
7.450197415550000e0 7.510038038220000e0 7.570359305880000e0 7.631165079120000e0
7.692459249530000e0 7.754245739960000e0 7.816528504770000e0 7.879311530070000e0
7.942598833990000e0 8.006394466950001e0 8.070702511890000e0 8.135527084550001e0
8.200872333710000e0 8.266742441510001e0 8.333141623640000e0 8.400074129680000e0
8.467544243330000e0 8.535556282700000e0 8.604114600590000e0 8.673223584750000e0
8.742887658180001e0 8.813111279410000e0 8.883898942760000e0 8.955255178680000e0
9.027184553990001e0 9.099691672190000e0 9.172781173760001e0 9.246457736460000e0
9.320726075610001e0 9.395590944420000e0 9.471057134240001e0 9.547129474960000e0
9.623812835230000e0 9.701112122800000e0 9.779032284850000e0 9.857578308310000e0
9.936755220149999e0 1.001656808770000e1 1.009702201910000e1 1.017812216320000e1
1.025987371070000e1 1.034228189360000e1 1.042535198610000e1 1.050908930470000e1
1.059349920860000e1 1.067858710000000e1 1.076435842460000e1 1.085081867190000e1
1.093797337530000e1 1.102582811270000e1 1.111438850680000e1 1.120366022560000e1
1.129364898250000e1 1.138436053680000e1 1.147580069410000e1 1.156797530650000e1
1.166089027320000e1 1.175455154100000e1 1.184896510400000e1 1.194413700490000e1
1.204007333460000e1 1.213678023310000e1 1.223426388960000e1 1.233253054330000e1
1.243158648310000e1 1.253143804870000e1 1.263209163060000e1 1.273355367060000e1
1.283583066250000e1 1.293892915190000e1 1.304285573720000e1 1.314761706970000e1
1.325321985420000e1 1.335967084920000e1 1.346697686780000e1 1.357514477750000e1
1.368418150110000e1 1.379409401700000e1 1.390488935960000e1 1.401657461980000e1
1.412915694560000e1 1.424264354230000e1 1.435704167310000e1 1.447235865940000e1
1.458860188160000e1 1.470577877930000e1 1.482389685180000e1 1.494296365890000e1
1.506298682070000e1 1.518397401870000e1 1.530593299640000e1 1.542887155890000e1
1.555279757450000e1 1.567771897450000e1 1.580364375380000e1 1.593057997170000e1
1.605853575210000e1 1.618751928440000e1 1.631753882340000e1 1.644860269040000e1
1.658071927370000e1 1.671389702860000e1 1.684814447860000e1 1.698347021570000e1
1.711988290060000e1 1.725739126390000e1 1.739600410610000e1 1.753573029850000e1
1.767657878360000e1 1.781855857590000e1 1.796167876190000e1 1.810594850150000e1
1.825137702800000e1 1.839797364890000e1 1.854574774630000e1 1.869470877800000e1
1.884486627740000e1 1.899622985460000e1 1.914880919710000e1 1.930261406980000e1
1.945765431650000e1 1.961393985970000e1 1.977148070170000e1 1.993028692530000e1
2.009036869400000e1 2.025173625310000e1 2.041439993030000e1 2.057837013610000e1
2.074365736450000e1 2.091027219420000e1 2.107822528840000e1 2.124752739610000e1
2.141818935290000e1 2.159022208120000e1 2.176363659100000e1 2.193844398100000e1
2.211465543890000e1 2.229228224220000e1 2.247133575930000e1 2.265182744950000e1
2.283376886440000e1 2.301717164830000e1 2.320204753910000e1 2.338840836880000e1
2.357626606460000e1 2.376563264950000e1 2.395652024300000e1 2.414894106200000e1
2.434290742140000e1 2.453843173530000e1 2.473552651710000e1 2.493420438110000e1
2.513447804260000e1 2.533636031940000e1 2.553986413180001e1 2.574500250430000e1
2.595178856570000e1 2.616023555050000e1 2.637035679920000e1 2.658216575980000e1
2.679567598810000e1 2.701090114880000e1 2.722785501640000e1 2.744655147590001e1
2.766700452420000e1 2.788922827020000e1 2.811323693630000e1 2.833904485920000e1
2.856666649060000e1 2.879611639840000e1 2.902740926750000e1 2.926055990070000e1
2.949558321970000e1 2.973249426620000e1 2.997130820240000e1 3.021204031250000e1
3.045470600360000e1 3.069932080620000e1 3.094590037580000e1 3.119446049370000e1
3.144501706760000e1 3.169758613340000e1 3.195218385550000e1 3.220882652830000e1
3.246753057690000e1 3.272831255860000e1 3.299118916350000e1 3.325617721580000e1
3.352329367470000e1 3.379255563590000e1 3.406398033220000e1 3.433758513480000e1
3.461338755460000e1 3.489140524300000e1 3.517165599330000e1 3.545415774160000e1
3.573892856810000e1 3.602598669810000e1 3.631535050370001e1 3.660703850400000e1
3.690106936740000e1 3.719746191170000e1 3.749623510630000e1 3.779740807280001e1
3.810100008630000e1 3.840703057680000e1 3.871551913030000e1 3.902648549030000e1
3.933994955870000e1 3.965593139730000e1 3.997445122900000e1 4.029552943930000e1
4.061918657720000e1 4.094544335690000e1 4.127432065900000e1 4.160583953160000e1
4.194002119220000e1 4.227688702850000e1 4.261645859990000e1 4.295875763930001e1
4.330380605380000e1 4.365162592670000e1 4.400223951860000e1 4.435566926870000e1
4.471193779690000e1 4.507106790440001e1 4.543308257550001e1 4.579800497950000e1
4.616585847140001e1 4.653666659400001e1 4.691045307920001e1 4.728724184940000e1
4.766705701920000e1 4.804992289690000e1 4.843586398610000e1 4.882490498710000e1
4.921707079870000e1 4.961238651960000e1 5.001087745020000e1 5.041256909400000e1
5.081748715950000e1 5.122565756150000e1 5.163710642300000e1 5.205186007700000e1
5.246994506780000e1 5.289138815300000e1 5.331621630510000e1 5.374445671320000e1
5.417613678490000e1 5.461128414780000e1 5.504992665160001e1 5.549209236950000e1
5.593780960020000e1 5.638710686980001e1 5.684001293350001e1 5.729655677750000e1
5.775676762060001e1 5.822067491660000e1 5.868830835570001e1 5.915969786650000e1
5.963487361810000e1 6.011386602210000e1 6.059670573400000e1 6.108342365570000e1
6.157405093740000e1 6.206861897940001e1 6.256715943410001e1 6.306970420850000e1
6.357628546540000e1 6.408693562630001e1 6.460168737300001e1 6.512057364970001e1
6.564362766530000e1 6.617088289550001e1 6.670237308480001e1 6.723813224880001e1
6.777819467620001e1 6.832259493110000e1 6.887136785550000e1 6.942454857090000e1
6.998217248110000e1 7.054427527430001e1 7.111089292510001e1 7.168206169740000e1
7.225781814600001e1 7.283819911969999e1 7.342324176300000e1 7.401298351890000e1