<UPF version="2.0.1">
<PP_INFO>
Generated by new atomic code, or converted to UPF format
Author:
Generation date:
Pseudopotential type: US
Element: Rh
Functional:  SLA  PW   PBE  PBE
Suggested minimum cutoff for wavefunctions:   0. Ry
Suggested minimum cutoff for charge density:   0. Ry
The Pseudo was generated with a Scalar-Relativistic Calculation
L component and cutoff radius for Local Potential:  0   0.0000
Valence configuration:
nl pn  l   occ       Rcut    Rcut US       E pseu
4D  0  2  7.00      2.550      2.550     0.000000
5S  0  0  2.00      2.150      2.450     0.000000
Generation configuration: not available.
</PP_INFO>
<!--
END OF HUMAN READABLE SECTION
-->
<PP_HEADER generated="Generated by new atomic code, or converted to UPF format" author="" date="" comment="" element="Rh" pseudo_type="US" relativistic="scalar" is_ultrasoft="true" is_paw="false" is_coulomb="false" has_so="false" has_wfc="false" has_gipaw="false" paw_as_gipaw="false" core_correction="true" functional=" SLA  PW   PBE  PBE" z_valence="9.000000000000e0" total_psenergy="-4.385464419000e1" wfc_cutoff="0.000000000000e0" rho_cutoff="0.000000000000e0" l_max="2" l_max_rho="0" l_local="0" mesh_size="1491" number_of_wfc="2" number_of_proj="3"/>
<PP_MESH dx="1.000000000000e-2" mesh="1491" xmin="-6.999999999999e0" rmax="5.993960729490e1" zmesh="4.500000000000e1">
<PP_R>
2.026404367900000e-5 2.046770070380000e-5 2.067340451570000e-5 2.088117568520000e-5
2.109103498980000e-5 2.130300341540000e-5 2.151710215910000e-5 2.173335263100000e-5
2.195177645620000e-5 2.217239547740000e-5 2.239523175660000e-5 2.262030757770000e-5
2.284764544830000e-5 2.307726810260000e-5 2.330919850280000e-5 2.354345984240000e-5
2.378007554750000e-5 2.401906928010000e-5 2.426046493950000e-5 2.450428666570000e-5
2.475055884100000e-5 2.499930609280000e-5 2.525055329600000e-5 2.550432557560000e-5
2.576064830900000e-5 2.601954712870000e-5 2.628104792480000e-5 2.654517684760000e-5
2.681196031020000e-5 2.708142499120000e-5 2.735359783720000e-5 2.762850606580001e-5
2.790617716810000e-5 2.818663891130000e-5 2.846991934190000e-5 2.875604678810000e-5
2.904504986300000e-5 2.933695746710000e-5 2.963179879140000e-5 2.992960332030000e-5
3.023040083440000e-5 3.053422141380000e-5 3.084109544080000e-5 3.115105360300000e-5
3.146412689660000e-5 3.178034662910000e-5 3.209974442270000e-5 3.242235221750001e-5
3.274820227449999e-5 3.307732717910000e-5 3.340975984390000e-5 3.374553351260000e-5
3.408468176280000e-5 3.442723850950000e-5 3.477323800880000e-5 3.512271486080000e-5
3.547570401360000e-5 3.583224076640001e-5 3.619236077310000e-5 3.655610004600001e-5
3.692349495940000e-5 3.729458225310001e-5 3.766939903610000e-5 3.804798279030000e-5
3.843037137460001e-5 3.881660302799999e-5 3.920671637410000e-5 3.960075042450001e-5
3.999874458290000e-5 4.040073864910000e-5 4.080677282290001e-5 4.121688770790000e-5
4.163112431610000e-5 4.204952407130000e-5 4.247212881410000e-5 4.289898080510000e-5
4.333012272990000e-5 4.376559770309999e-5 4.420544927260000e-5 4.464972142380000e-5
4.509845858429999e-5 4.555170562840000e-5 4.600950788090000e-5 4.647191112260001e-5
4.693896159410000e-5 4.741070600080000e-5 4.788719151770000e-5 4.836846579370000e-5
4.885457695650000e-5 4.934557361769999e-5 4.984150487750000e-5 5.034242032920001e-5
5.084837006490000e-5 5.135940467999999e-5 5.187557527840000e-5 5.239693347759999e-5
5.292353141370000e-5 5.345542174709999e-5 5.399265766720001e-5 5.453529289810001e-5
5.508338170370001e-5 5.563697889340000e-5 5.619613982730001e-5 5.676092042210001e-5
5.733137715620000e-5 5.790756707570001e-5 5.848954780030001e-5 5.907737752839999e-5
5.967111504340000e-5 6.027081971970000e-5 6.087655152820001e-5 6.148837104260001e-5
6.210633944530000e-5 6.273051853369999e-5 6.336097072620000e-5 6.399775906860000e-5
6.464094724030001e-5 6.529059956049999e-5 6.594678099509999e-5 6.660955716279999e-5
6.727899434169999e-5 6.795515947610000e-5 6.863812018299999e-5 6.932794475920002e-5
7.002470218770000e-5 7.072846214469999e-5 7.143929500680000e-5 7.215727185800000e-5
7.288246449650000e-5 7.361494544219999e-5 7.435478794380001e-5 7.510206598609999e-5
7.585685429770001e-5 7.661922835780000e-5 7.738926440469999e-5 7.816703944250001e-5
7.895263124940000e-5 7.974611838519998e-5 8.054758019920003e-5 8.135709683850001e-5
8.217474925519998e-5 8.300061921530000e-5 8.383478930650000e-5 8.467734294650000e-5
8.552836439129997e-5 8.638793874390000e-5 8.725615196229999e-5 8.813309086869999e-5
8.901884315760000e-5 8.991349740490000e-5 9.081714307700000e-5 9.172987053900002e-5
9.265177106450000e-5 9.358293684440000e-5 9.452346099590001e-5 9.547343757229999e-5
9.643296157200000e-5 9.740212894820001e-5 9.838103661849999e-5 9.936978247440001e-5
1.003684653910000e-4 1.013771852390000e-4 1.023960428890000e-4 1.034251402290000e-4
1.044645801690000e-4 1.055144666540000e-4 1.065749046730000e-4 1.076460002720000e-4
1.087278605610000e-4 1.098205937260000e-4 1.109243090420000e-4 1.120391168820000e-4
1.131651287270000e-4 1.143024571780000e-4 1.154512159710000e-4 1.166115199820000e-4
1.177834852420000e-4 1.189672289480000e-4 1.201628694760000e-4 1.213705263920000e-4
1.225903204610000e-4 1.238223736650000e-4 1.250668092090000e-4 1.263237515380000e-4
1.275933263480000e-4 1.288756605960000e-4 1.301708825190000e-4 1.314791216370000e-4
1.328005087780000e-4 1.341351760800000e-4 1.354832570110000e-4 1.368448863820000e-4
1.382202003540000e-4 1.396093364620000e-4 1.410124336200000e-4 1.424296321390000e-4
1.438610737400000e-4 1.453069015680000e-4 1.467672602070000e-4 1.482422956950000e-4
1.497321555350000e-4 1.512369887160000e-4 1.527569457220000e-4 1.542921785500000e-4
1.558428407240000e-4 1.574090873120000e-4 1.589910749400000e-4 1.605889618080000e-4
1.622029077060000e-4 1.638330740300000e-4 1.654796237980000e-4 1.671427216670000e-4
1.688225339460000e-4 1.705192286200000e-4 1.722329753590000e-4 1.739639455380000e-4
1.757123122580000e-4 1.774782503550000e-4 1.792619364240000e-4 1.810635488370000e-4
1.828832677560000e-4 1.847212751540000e-4 1.865777548330000e-4 1.884528924430000e-4
1.903468755000000e-4 1.922598934030000e-4 1.941921374550000e-4 1.961438008830000e-4
1.981150788540000e-4 2.001061684990000e-4 2.021172689270000e-4 2.041485812500000e-4
2.062003086010000e-4 2.082726561560000e-4 2.103658311490000e-4 2.124800429010000e-4
2.146155028340000e-4 2.167724244970000e-4 2.189510235820000e-4 2.211515179520000e-4
2.233741276590000e-4 2.256190749640000e-4 2.278865843650000e-4 2.301768826140000e-4
2.324901987430000e-4 2.348267640860000e-4 2.371868123010000e-4 2.395705793940000e-4
2.419783037460000e-4 2.444102261290000e-4 2.468665897389999e-4 2.493476402130000e-4
2.518536256590000e-4 2.543847966780000e-4 2.569414063880000e-4 2.595237104530000e-4
2.621319671060000e-4 2.647664371730000e-4 2.674273841050000e-4 2.701150739980001e-4
2.728297756240000e-4 2.755717604540000e-4 2.783413026910000e-4 2.811386792890000e-4
2.839641699900000e-4 2.868180573440000e-4 2.897006267430000e-4 2.926121664460000e-4
2.955529676100000e-4 2.985233243170000e-4 3.015235336040000e-4 3.045538954970000e-4
3.076147130330000e-4 3.107062922960000e-4 3.138289424480000e-4 3.169829757560000e-4
3.201687076250001e-4 3.233864566310001e-4 3.266365445530001e-4 3.299192964019999e-4
3.332350404550000e-4 3.365841082900000e-4 3.399668348160000e-4 3.433835583090000e-4
3.468346204440000e-4 3.503203663300000e-4 3.538411445450000e-4 3.573973071690000e-4
3.609892098210000e-4 3.646172116950000e-4 3.682816755950000e-4 3.719829679680000e-4
3.757214589489999e-4 3.794975223890000e-4 3.833115358970001e-4 3.871638808779999e-4
3.910549425690000e-4 3.949851100810000e-4 3.989547764329999e-4 4.029643385959999e-4
4.070141975269999e-4 4.111047582179999e-4 4.152364297270000e-4 4.194096252260000e-4
4.236247620359999e-4 4.278822616750000e-4 4.321825498969999e-4 4.365260567350000e-4
4.409132165420000e-4 4.453444680370000e-4 4.498202543510000e-4 4.543410230649999e-4
4.589072262599999e-4 4.635193205599999e-4 4.681777671790000e-4 4.728830319639999e-4
4.776355854460000e-4 4.824359028859999e-4 4.872844643170000e-4 4.921817546010000e-4
4.971282634700001e-4 5.021244855800000e-4 5.071709205579999e-4 5.122680730489999e-4
5.174164527750000e-4 5.226165745779999e-4 5.278689584729999e-4 5.331741297050000e-4
5.385326187930000e-4 5.439449615920000e-4 5.494116993410001e-4 5.549333787170000e-4
5.605105518940000e-4 5.661437765930000e-4 5.718336161410001e-4 5.775806395279998e-4
5.833854214600001e-4 5.892485424200000e-4 5.951705887250000e-4 6.011521525859999e-4
6.071938321620001e-4 6.132962316280000e-4 6.194599612280001e-4 6.256856373400000e-4
6.319738825370002e-4 6.383253256500000e-4 6.447406018270001e-4 6.512203526010001e-4
6.577652259529999e-4 6.643758763760000e-4 6.710529649400000e-4 6.777971593599998e-4
6.846091340610000e-4 6.914895702460000e-4 6.984391559640000e-4 7.054585861790001e-4
7.125485628410000e-4 7.197097949530001e-4 7.269429986450000e-4 7.342488972420002e-4
7.416282213410000e-4 7.490817088790001e-4 7.566101052130001e-4 7.642141631880000e-4
7.718946432160000e-4 7.796523133520000e-4 7.874879493690000e-4 7.954023348370001e-4
8.033962612010001e-4 8.114705278610000e-4 8.196259422499999e-4 8.278633199160000e-4
8.361834846040001e-4 8.445872683369998e-4 8.530755115010001e-4 8.616490629270000e-4
8.703087799770000e-4 8.790555286309999e-4 8.878901835700002e-4 8.968136282670001e-4
9.058267550749999e-4 9.149304653129999e-4 9.241256693590000e-4 9.334132867430000e-4
9.427942462340001e-4 9.522694859340000e-4 9.618399533770001e-4 9.715066056170000e-4
9.812704093270002e-4 9.911323408950000e-4 1.001093386520000e-3 1.011154542320000e-3
1.021316814420000e-3 1.031581219050000e-3 1.041948782670000e-3 1.052420542030000e-3
1.062997544320000e-3 1.073680847250000e-3 1.084471519160000e-3 1.095370639120000e-3
1.106379297060000e-3 1.117498593860000e-3 1.128729641440000e-3 1.140073562930000e-3
1.151531492730000e-3 1.163104576630000e-3 1.174793971960000e-3 1.186600847670000e-3
1.198526384450000e-3 1.210571774870000e-3 1.222738223480000e-3 1.235026946920000e-3
1.247439174090000e-3 1.259976146220000e-3 1.272639117010000e-3 1.285429352770000e-3
1.298348132540000e-3 1.311396748210000e-3 1.324576504640000e-3 1.337888719830000e-3
1.351334725000000e-3 1.364915864780000e-3 1.378633497270000e-3 1.392488994270000e-3
1.406483741330000e-3 1.420619137930000e-3 1.434896597630000e-3 1.449317548180000e-3
1.463883431700000e-3 1.478595704780000e-3 1.493455838660000e-3 1.508465319370000e-3
1.523625647870000e-3 1.538938340210000e-3 1.554404927660000e-3 1.570026956900000e-3
1.585805990140000e-3 1.601743605310000e-3 1.617841396170000e-3 1.634100972510000e-3
1.650523960320000e-3 1.667112001900000e-3 1.683866756060000e-3 1.700789898310000e-3
1.717883120960000e-3 1.735148133360000e-3 1.752586662010000e-3 1.770200450800000e-3
1.787991261100000e-3 1.805960872020000e-3 1.824111080530000e-3 1.842443701670000e-3
1.860960568720000e-3 1.879663533370000e-3 1.898554465940000e-3 1.917635255540000e-3
1.936907810270000e-3 1.956374057390000e-3 1.976035943540000e-3 1.995895434940000e-3
2.015954517540000e-3 2.036215197280000e-3 2.056679500230000e-3 2.077349472850000e-3
2.098227182140000e-3 2.119314715900000e-3 2.140614182900000e-3 2.162127713100000e-3
2.183857457870000e-3 2.205805590210000e-3 2.227974304950000e-3 2.250365818980000e-3
2.272982371460000e-3 2.295826224070000e-3 2.318899661220000e-3 2.342204990260000e-3
2.365744541760000e-3 2.389520669680000e-3 2.413535751670000e-3 2.437792189230001e-3
2.462292408050000e-3 2.487038858160000e-3 2.512034014230000e-3 2.537280375800000e-3
2.562780467510000e-3 2.588536839410000e-3 2.614552067150000e-3 2.640828752280000e-3
2.667369522480000e-3 2.694177031850000e-3 2.721253961180000e-3 2.748603018169999e-3
2.776226937750001e-3 2.804128482330000e-3 2.832310442110000e-3 2.860775635280000e-3
2.889526908410000e-3 2.918567136630000e-3 2.947899223999999e-3 2.977526103750000e-3
3.007450738590000e-3 3.037676121010000e-3 3.068205273580000e-3 3.099041249220000e-3
3.130187131580000e-3 3.161646035260000e-3 3.193421106170000e-3 3.225515521860000e-3
3.257932491790000e-3 3.290675257680000e-3 3.323747093840001e-3 3.357151307470000e-3
3.390891239040000e-3 3.424970262560000e-3 3.459391785960000e-3 3.494159251410000e-3
3.529276135710000e-3 3.564745950560000e-3 3.600572242980000e-3 3.636758595620000e-3
3.673308627150000e-3 3.710225992600000e-3 3.747514383750000e-3 3.785177529450000e-3
3.823219196070000e-3 3.861643187789999e-3 3.900453347040000e-3 3.939653554890000e-3
3.979247731370000e-3 4.019239835940000e-3 4.059633867840001e-3 4.100433866510000e-3
4.141643911990000e-3 4.183268125310000e-3 4.225310668919999e-3 4.267775747129999e-3
4.310667606460000e-3 4.353990536150000e-3 4.397748868519999e-3 4.441946979450000e-3
4.486589288770000e-3 4.531680260760000e-3 4.577224404550000e-3 4.623226274600000e-3
4.669690471130000e-3 4.716621640590001e-3 4.764024476159999e-3 4.811903718130000e-3
4.860264154490000e-3 4.909110621320000e-3 4.958448003300000e-3 5.008281234210000e-3
5.058615297420000e-3 5.109455226369999e-3 5.160806105110001e-3 5.212673068750000e-3
5.265061304050001e-3 5.317976049860000e-3 5.371422597710001e-3 5.425406292300000e-3
5.479932532039999e-3 5.535006769590000e-3 5.590634512440000e-3 5.646821323399999e-3
5.703572821190001e-3 5.760894681020000e-3 5.818792635120000e-3 5.877272473330000e-3
5.936340043690000e-3 5.996001252990001e-3 6.056262067420000e-3 6.117128513110000e-3
6.178606676739999e-3 6.240702706190000e-3 6.303422811110000e-3 6.366773263560001e-3
6.430760398649999e-3 6.495390615130001e-3 6.560670376090000e-3 6.626606209550000e-3
6.693204709160000e-3 6.760472534820000e-3 6.828416413360000e-3 6.897043139229999e-3
6.966359575170000e-3 7.036372652870000e-3 7.107089373699999e-3 7.178516809380000e-3
7.250662102729999e-3 7.323532468340001e-3 7.397135193290000e-3 7.471477637930001e-3
7.546567236550001e-3 7.622411498190001e-3 7.699018007329999e-3 7.776394424690000e-3
7.854548487970002e-3 7.933488012650001e-3 8.013220892740001e-3 8.093755101590000e-3
8.175098692700001e-3 8.257259800490001e-3 8.340246641139998e-3 8.424067513410002e-3
8.508730799449999e-3 8.594244965660000e-3 8.680618563520001e-3 8.767860230480000e-3
8.855978690770000e-3 8.944982756300000e-3 9.034881327570000e-3 9.125683394499999e-3
9.217398037370000e-3 9.310034427730001e-3 9.403601829280001e-3 9.498109598859999e-3
9.593567187309999e-3 9.689984140480000e-3 9.787370100130000e-3 9.885734804949999e-3
9.985088091489999e-3 1.008543989520000e-2 1.018680025120000e-2 1.028917929580000e-2
1.039258726690000e-2 1.049703450540000e-2 1.060253145600000e-2 1.070908866870000e-2
1.081671679910000e-2 1.092542661020000e-2 1.103522897310000e-2 1.114613486810000e-2
1.125815538590000e-2 1.137130172860000e-2 1.148558521090000e-2 1.160101726140000e-2
1.171760942320000e-2 1.183537335570000e-2 1.195432083540000e-2 1.207446375720000e-2
1.219581413540000e-2 1.231838410520000e-2 1.244218592370000e-2 1.256723197110000e-2
1.269353475220000e-2 1.282110689730000e-2 1.294996116390000e-2 1.308011043730000e-2
1.321156773270000e-2 1.334434619580000e-2 1.347845910470000e-2 1.361391987080000e-2
1.375074204010000e-2 1.388893929520000e-2 1.402852545570000e-2 1.416951448050000e-2
1.431192046850000e-2 1.445575766050000e-2 1.460104044030000e-2 1.474778333640000e-2
1.489600102300000e-2 1.504570832220000e-2 1.519692020470000e-2 1.534965179190000e-2
1.550391835710000e-2 1.565973532710000e-2 1.581711828360000e-2 1.597608296520000e-2
1.613664526830000e-2 1.629882124940000e-2 1.646262712630000e-2 1.662807927950000e-2
1.679519425460000e-2 1.696398876300000e-2 1.713447968450000e-2 1.730668406830000e-2
1.748061913480000e-2 1.765630227790000e-2 1.783375106580000e-2 1.801298324380000e-2
1.819401673510000e-2 1.837686964320000e-2 1.856156025360000e-2 1.874810703550000e-2
1.893652864370000e-2 1.912684392060000e-2 1.931907189780000e-2 1.951323179820000e-2
1.970934303820000e-2 1.990742522880000e-2 2.010749817860000e-2 2.030958189490000e-2
2.051369658640000e-2 2.071986266460000e-2 2.092810074630000e-2 2.113843165560000e-2
2.135087642560000e-2 2.156545630110000e-2 2.178219274020000e-2 2.200110741660000e-2
2.222222222220000e-2 2.244555926850000e-2 2.267114088950000e-2 2.289898964340000e-2
2.312912831540000e-2 2.336157991950000e-2 2.359636770100000e-2 2.383351513900000e-2
2.407304594830000e-2 2.431498408230000e-2 2.455935373500000e-2 2.480617934350000e-2
2.505548559070000e-2 2.530729740720000e-2 2.556163997460000e-2 2.581853872730000e-2
2.607801935540000e-2 2.634010780710000e-2 2.660483029160000e-2 2.687221328130000e-2
2.714228351470000e-2 2.741506799900000e-2 2.769059401310000e-2 2.796888910950000e-2
2.824998111830000e-2 2.853389814860000e-2 2.882066859260000e-2 2.911032112740000e-2
2.940288471860000e-2 2.969838862280000e-2 2.999686239060000e-2 3.029833586960000e-2
3.060283920750000e-2 3.091040285480000e-2 3.122105756810000e-2 3.153483441320000e-2
3.185176476800000e-2 3.217188032590000e-2 3.249521309850000e-2 3.282179541960000e-2
3.315165994760000e-2 3.348483966920001e-2 3.382136790260000e-2 3.416127830110000e-2
3.450460485580000e-2 3.485138189980000e-2 3.520164411100000e-2 3.555542651590000e-2
3.591276449320000e-2 3.627369377680000e-2 3.663825046000000e-2 3.700647099880000e-2
3.737839221550000e-2 3.775405130260000e-2 3.813348582630000e-2 3.851673373040000e-2
3.890383333990000e-2 3.929482336520000e-2 3.968974290560000e-2 4.008863145330000e-2
4.049152889760000e-2 4.089847552850000e-2 4.130951204100000e-2 4.172467953920000e-2
4.214401954010000e-2 4.256757397810000e-2 4.299538520890000e-2 4.342749601410000e-2
4.386394960510000e-2 4.430478962760000e-2 4.475006016600000e-2 4.519980574770000e-2
4.565407134760000e-2 4.611290239280000e-2 4.657634476650000e-2 4.704444481359999e-2
4.751724934439999e-2 4.799480563970000e-2 4.847716145550000e-2 4.896436502789999e-2
4.945646507759999e-2 4.995351081500000e-2 5.045555194520000e-2 5.096263867249999e-2
5.147482170620000e-2 5.199215226500000e-2 5.251468208240000e-2 5.304246341170000e-2
5.357554903150000e-2 5.411399225090000e-2 5.465784691460001e-2 5.520716740860000e-2
5.576200866530000e-2 5.632242616930000e-2 5.688847596290000e-2 5.746021465149999e-2
5.803769940940001e-2 5.862098798559999e-2 5.921013870950000e-2 5.980521049670000e-2
6.040626285460000e-2 6.101335588930000e-2 6.162655031030000e-2 6.224590743779999e-2
6.287148920780000e-2 6.350335817920000e-2 6.414157753930000e-2 6.478621111060000e-2
6.543732335700001e-2 6.609497939030000e-2 6.675924497660001e-2 6.743018654299999e-2
6.810787118430000e-2 6.879236666940001e-2 6.948374144860001e-2 7.018206465979999e-2
7.088740613590000e-2 7.159983641169999e-2 7.231942673090000e-2 7.304624905300000e-2
7.378037606080000e-2 7.452188116779999e-2 7.527083852490001e-2 7.602732302869999e-2
7.679141032810000e-2 7.756317683250000e-2 7.834269971920000e-2 7.913005694120000e-2
7.992532723490000e-2 8.072859012779999e-2 8.153992594710001e-2 8.235941582690000e-2
8.318714171690001e-2 8.402318639040001e-2 8.486763345260000e-2 8.572056734880000e-2
8.658207337320000e-2 8.745223767710000e-2 8.833114727769999e-2 8.921889006649998e-2
9.011555481880000e-2 9.102123120160000e-2 9.193600978339999e-2 9.285998204270001e-2
9.379324037769999e-2 9.473587811490001e-2 9.568798951880000e-2 9.664966980139999e-2
9.762101513150000e-2 9.860212264449999e-2 9.959309045199999e-2 1.005940176510000e-1
1.016050043360000e-1 1.026261516070000e-1 1.036575615780000e-1 1.046993373910000e-1
1.057515832250000e-1 1.068144043060000e-1 1.078879069160000e-1 1.089721984070000e-1
1.100673872090000e-1 1.111735828410000e-1 1.122908959240000e-1 1.134194381900000e-1
1.145593224940000e-1 1.157106628260000e-1 1.168735743210000e-1 1.180481732710000e-1
1.192345771360000e-1 1.204329045580000e-1 1.216432753720000e-1 1.228658106140000e-1
1.241006325390000e-1 1.253478646320000e-1 1.266076316150000e-1 1.278800594670000e-1
1.291652754310000e-1 1.304634080310000e-1 1.317745870800000e-1 1.330989436970000e-1
1.344366103200000e-1 1.357877207160000e-1 1.371524099970000e-1 1.385308146340000e-1
1.399230724670000e-1 1.413293227240000e-1 1.427497060320000e-1 1.441843644290000e-1
1.456334413820000e-1 1.470970818010000e-1 1.485754320510000e-1 1.500686399670000e-1
1.515768548730000e-1 1.531002275910000e-1 1.546389104590000e-1 1.561930573460000e-1
1.577628236700000e-1 1.593483664080000e-1 1.609498441150000e-1 1.625674169400000e-1
1.642012466430000e-1 1.658514966070000e-1 1.675183318590000e-1 1.692019190840000e-1
1.709024266420000e-1 1.726200245850000e-1 1.743548846740000e-1 1.761071803970000e-1
1.778770869840000e-1 1.796647814290000e-1 1.814704425020000e-1 1.832942507690000e-1
1.851363886150000e-1 1.869970402540000e-1 1.888763917530000e-1 1.907746310480000e-1
1.926919479660000e-1 1.946285342390000e-1 1.965845835270000e-1 1.985602914380000e-1
2.005558555430000e-1 2.025714754010000e-1 2.046073525750000e-1 2.066636906550000e-1
2.087406952770000e-1 2.108385741410000e-1 2.129575370390000e-1 2.150977958680000e-1
2.172595646560000e-1 2.194430595820000e-1 2.216484989960000e-1 2.238761034450000e-1
2.261260956910000e-1 2.283987007340000e-1 2.306941458380000e-1 2.330126605500000e-1
2.353544767210000e-1 2.377198285360000e-1 2.401089525320000e-1 2.425220876230000e-1
2.449594751250000e-1 2.474213587790000e-1 2.499079847750000e-1 2.524196017780000e-1
2.549564609510000e-1 2.575188159830000e-1 2.601069231110000e-1 2.627210411480000e-1
2.653614315080000e-1 2.680283582320000e-1 2.707220880160000e-1 2.734428902340000e-1
2.761910369680000e-1 2.789668030370000e-1 2.817704660190000e-1 2.846023062810000e-1
2.874626070120000e-1 2.903516542430000e-1 2.932697368810000e-1 2.962171467380000e-1
2.991941785560000e-1 3.022011300410000e-1 3.052383018910000e-1 3.083059978250000e-1
3.114045246160000e-1 3.145341921190000e-1 3.176953133040000e-1 3.208882042850000e-1
3.241131843530000e-1 3.273705760100000e-1 3.306607049970000e-1 3.339839003310000e-1
3.373404943320000e-1 3.407308226650000e-1 3.441552243630000e-1 3.476140418710000e-1
3.511076210720000e-1 3.546363113290000e-1 3.582004655120000e-1 3.618004400400000e-1
3.654365949130000e-1 3.691092937510000e-1 3.728189038250000e-1 3.765657961010000e-1
3.803503452700000e-1 3.841729297900000e-1 3.880339319240000e-1 3.919337377740000e-1
3.958727373250000e-1 3.998513244790000e-1 4.038698970990000e-1 4.079288570450000e-1
4.120286102170000e-1 4.161695665930000e-1 4.203521402720000e-1 4.245767495160000e-1
4.288438167890000e-1 4.331537688010000e-1 4.375070365500000e-1 4.419040553679999e-1
4.463452649600000e-1 4.508311094500000e-1 4.553620374270000e-1 4.599385019860000e-1
4.645609607800000e-1 4.692298760560000e-1 4.739457147120000e-1 4.787089483330000e-1
4.835200532490000e-1 4.883795105730000e-1 4.932878062539999e-1 4.982454311280000e-1
5.032528809590000e-1 5.083106564990000e-1 5.134192635270000e-1 5.185792129099999e-1
5.237910206460000e-1 5.290552079210000e-1 5.343723011570000e-1 5.397428320690000e-1
5.451673377140001e-1 5.506463605460000e-1 5.561804484740001e-1 5.617701549100000e-1
5.674160388300001e-1 5.731186648270000e-1 5.788786031670000e-1 5.846964298500001e-1
5.905727266640000e-1 5.965080812420000e-1 6.025030871260000e-1 6.085583438200000e-1
6.146744568560000e-1 6.208520378499999e-1 6.270917045650000e-1 6.333940809730000e-1
6.397597973169999e-1 6.461894901730000e-1 6.526838025180000e-1 6.592433837860000e-1
6.658688899420000e-1 6.725609835420000e-1 6.793203338010000e-1 6.861476166590000e-1
6.930435148510000e-1 7.000087179720000e-1 7.070439225479999e-1 7.141498321060000e-1
7.213271572410001e-1 7.285766156940000e-1 7.358989324150000e-1 7.432948396430000e-1
7.507650769740000e-1 7.583103914390001e-1 7.659315375749999e-1 7.736292775019999e-1
7.814043810020000e-1 7.892576255920000e-1 7.971897966009999e-1 8.052016872550000e-1
8.132940987480000e-1 8.214678403290000e-1 8.297237293789999e-1 8.380625914930000e-1
8.464852605639999e-1 8.549925788670000e-1 8.635853971410000e-1 8.722645746730000e-1
8.810309793909999e-1 8.898854879400000e-1 8.988289857789999e-1 9.078623672660001e-1
9.169865357470000e-1 9.262024036449999e-1 9.355108925549999e-1 9.449129333350001e-1
9.544094661950000e-1 9.640014407970000e-1 9.736898163460001e-1 9.834755616890000e-1
9.933596554070000e-1 1.003343085920000e0 1.013426851570000e0 1.023611960760000e0
1.033899432000000e0 1.044290294040000e0 1.054785585970000e0 1.065386357350000e0
1.076093668250000e0 1.086908589420000e0 1.097832202350000e0 1.108865599410000e0
1.120009883960000e0 1.131266170430000e0 1.142635584460000e0 1.154119263000000e0
1.165718354420000e0 1.177434018660000e0 1.189267427280000e0 1.201219763630000e0
1.213292222960000e0 1.225486012520000e0 1.237802351710000e0 1.250242472160000e0
1.262807617900000e0 1.275499045450000e0 1.288318023980000e0 1.301265835380000e0
1.314343774440000e0 1.327553148980000e0 1.340895279940000e0 1.354371501550000e0
1.367983161430000e0 1.381731620770000e0 1.395618254430000e0 1.409644451070000e0
1.423811613330000e0 1.438121157940000e0 1.452574515870000e0 1.467173132450000e0
1.481918467580000e0 1.496811995780000e0 1.511855206430000e0 1.527049603860000e0
1.542396707530000e0 1.557898052150000e0 1.573555187870000e0 1.589369680430000e0
1.605343111270000e0 1.621477077770000e0 1.637773193320000e0 1.654233087560000e0
1.670858406490000e0 1.687650812650000e0 1.704611985300000e0 1.721743620560000e0
1.739047431620000e0 1.756525148880000e0 1.774178520110000e0 1.792009310680000e0
1.810019303670000e0 1.828210300090000e0 1.846584119070000e0 1.865142598010000e0
1.883887592750000e0 1.902820977830000e0 1.921944646590000e0 1.941260511410000e0
1.960770503900000e0 1.980476575080000e0 2.000380695570000e0 2.020484855790000e0
2.040791066180000e0 2.061301357380000e0 2.082017780430000e0 2.102942407000000e0
2.124077329560000e0 2.145424661620000e0 2.166986537930000e0 2.188765114710000e0
2.210762569820000e0 2.232981103030000e0 2.255422936210000e0 2.278090313570000e0
2.300985501850000e0 2.324110790600000e0 2.347468492370000e0 2.371060942940000e0
2.394890501590000e0 2.418959551280000e0 2.443270498940000e0 2.467825775680000e0
2.492627837060000e0 2.517679163300000e0 2.542982259560000e0 2.568539656160000e0
2.594353908870000e0 2.620427599130000e0 2.646763334330000e0 2.673363748070000e0
2.700231500420000e0 2.727369278160000e0 2.754779795110000e0 2.782465792330000e0
2.810430038450000e0 2.838675329910000e0 2.867204491280000e0 2.896020375480000e0
2.925125864130000e0 2.954523867810000e0 2.984217326330000e0 3.014209209080000e0
3.044502515250000e0 3.075100274220000e0 3.106005545780000e0 3.137221420480000e0
3.168751019930000e0 3.200597497130000e0 3.232764036750000e0 3.265253855460000e0
3.298070202280000e0 3.331216358870000e0 3.364695639870000e0 3.398511393240000e0
3.432667000580000e0 3.467165877480000e0 3.502011473850000e0 3.537207274300000e0
3.572756798410000e0 3.608663601190000e0 3.644931273330000e0 3.681563441640000e0
3.718563769360000e0 3.755935956550000e0 3.793683740470000e0 3.831810895930000e0
3.870321235670000e0 3.909218610760000e0 3.948506910960000e0 3.988190065150000e0
4.028272041670000e0 4.068756848750000e0 4.109648534900000e0 4.150951189340000e0
4.192668942350000e0 4.234805965750000e0 4.277366473270000e0 4.320354721010000e0
4.363775007820000e0 4.407631675760000e0 4.451929110550000e0 4.496671741960000e0
4.541864044290000e0 4.587510536810000e0 4.633615784200000e0 4.680184397040000e0
4.727221032210000e0 4.774730393430000e0 4.822717231670000e0 4.871186345640000e0
4.920142582320000e0 4.969590837350000e0 5.019536055600000e0 5.069983231640000e0
5.120937410240000e0 5.172403686840000e0 5.224387208120000e0 5.276893172470000e0
5.329926830540000e0 5.383493485730000e0 5.437598494760000e0 5.492247268170000e0
5.547445270880000e0 5.603198022740000e0 5.659511099080000e0 5.716390131240000e0
5.773840807180000e0 5.831868872010000e0 5.890480128580000e0 5.949680438080000e0
6.009475720580000e0 6.069871955660000e0 6.130875183000000e0 6.192491502960000e0
6.254727077230000e0 6.317588129420000e0 6.381080945690000e0 6.445211875370000e0
6.509987331610000e0 6.575413792010000e0 6.641497799270000e0 6.708245961840000e0
6.775664954600000e0 6.843761519500000e0 6.912542466250000e0 6.982014673020000e0
7.052185087060000e0 7.123060725500000e0 7.194648675940000e0 7.266956097240000e0
7.339990220210000e0 7.413758348320000e0 7.488267858450000e0 7.563526201590000e0
7.639540903670000e0 7.716319566190000e0 7.793869867110000e0 7.872199561510000e0
7.951316482420000e0 8.031228541610000e0 8.111943730340000e0 8.193470120210000e0
8.275815863920000e0 8.358989196110000e0 8.442998434180000e0 8.527851979139999e0
8.613558316400001e0 8.700126016660001e0 8.787563736779999e0 8.875880220599999e0
8.965084299840001e0 9.055184894980000e0 9.146191016150000e0 9.238111764039999e0
9.330956330810000e0 9.424734000990000e0 9.519454152430001e0 9.615126257209999e0
9.711759882630000e0 9.809364692130000e0 9.907950446279999e0 1.000752700370000e1
1.010810432220000e1 1.020969245960000e1 1.031230157470000e1 1.041594192850000e1
1.052062388520000e1 1.062635791310000e1 1.073315458560000e1 1.084102458250000e1
1.094997869100000e1 1.106002780640000e1 1.117118293380000e1 1.128345518880000e1
1.139685579870000e1 1.151139610370000e1 1.162708755800000e1 1.174394173060000e1
1.186197030720000e1 1.198118509080000e1 1.210159800280000e1 1.222322108470000e1
1.234606649890000e1 1.247014653010000e1 1.259547358630000e1 1.272206020030000e1
1.284991903100000e1 1.297906286430000e1 1.310950461460000e1 1.324125732640000e1
1.337433417490000e1 1.350874846800000e1 1.364451364720000e1 1.378164328920000e1
1.392015110690000e1 1.406005095140000e1 1.420135681270000e1 1.434408282140000e1
1.448824325050000e1 1.463385251590000e1 1.478092517880000e1 1.492947594650000e1
1.507951967420000e1 1.523107136650000e1 1.538414617860000e1 1.553875941810000e1
1.569492654660000e1 1.585266318070000e1 1.601198509440000e1 1.617290822000000e1
1.633544864980000e1 1.649962263810000e1 1.666544660250000e1 1.683293712540000e1
1.700211095600000e1 1.717298501190000e1 1.734557638060000e1 1.751990232140000e1
1.769598026700000e1 1.787382782540000e1 1.805346278150000e1 1.823490309890000e1
1.841816692180000e1 1.860327257680000e1 1.879023857450000e1 1.897908361170000e1