<UPF version="2.0.1">
<PP_INFO>
Generated by new atomic code, or converted to UPF format
Author:
Generation date:
Pseudopotential type: NC
Element: Si
Functional:  SLA  PZ   NOGX NOGC
Suggested minimum cutoff for wavefunctions:   0. Ry
Suggested minimum cutoff for charge density:   0. Ry
The Pseudo was generated with a Non-Relativistic Calculation
L component and cutoff radius for Local Potential:  0   0.0000
Valence configuration:
nl pn  l   occ       Rcut    Rcut US       E pseu
3S  0  0  2.00      0.000      0.000     0.000000
3P  0  1  2.00      0.000      0.000     0.000000
Generation configuration: not available.
</PP_INFO>
<!--
END OF HUMAN READABLE SECTION
-->
<PP_HEADER 
mesh_size="431"
number_of_wfc="2"
l_max_rho="0"
is_ultrasoft="false"
total_psenergy="0.000000000000e0"
rho_cutoff="0.000000000000e0"
l_local="0"
generated="Generated by new atomic code, or converted to UPF format"
is_coulomb="false"
functional=" SLA  PZ   NOGX NOGC"
author=""
has_wfc="false"
paw_as_gipaw="false"
has_so="false"
relativistic="no"
has_gipaw="false"
is_paw="false"
number_of_proj="2"
date=""
l_max="1"
wfc_cutoff="0.000000000000e0"
element="Si"
pseudo_type="NC"
core_correction="false"
comment=""
z_valence="4.000000000000e0"
/>
<PP_MESH dx="2.500000000001e-2" mesh="431" xmin="-4.000000000003e0" rmax="6.100419732330e1" zmesh="1.400000000000e1">
<PP_R>
1.308259920620000e-3 1.341378678190000e-3 1.375335841100000e-3 1.410152633680000e-3
1.445850817560000e-3 1.482452705260000e-3 1.519981174170000e-3 1.558459680790000e-3
1.597912275440000e-3 1.638363617280000e-3 1.679838989710000e-3 1.722364316200000e-3
1.765966176450000e-3 1.810671823050000e-3 1.856509198480000e-3 1.903506952600000e-3
1.951694460520000e-3 2.001101841020000e-3 2.051759975300000e-3 2.103700526360000e-3
2.156955958740000e-3 2.211559558800000e-3 2.267545455580000e-3 2.324948642080000e-3
2.383804997170000e-3 2.444151307980000e-3 2.506025292920000e-3 2.569465625240000e-3
2.634511957230000e-3 2.701204944950000e-3 2.769586273690000e-3 2.839698684020000e-3
2.911585998450001e-3 2.985293148919999e-3 3.060866204790000e-3 3.138352401670000e-3
3.217800170970000e-3 3.299259170120000e-3 3.382780313650000e-3 3.468415805000000e-3
3.556219169130000e-3 3.646245286010000e-3 3.738550424890000e-3 3.833192279480000e-3
3.930230004030000e-3 4.029724250270000e-3 4.131737205350000e-3 4.236332630670001e-3
4.343575901800000e-3 4.453534049260000e-3 4.566275800480000e-3 4.681871622720001e-3
4.800393767120000e-3 4.921916313900000e-3 5.046515218600000e-3 5.174268359590000e-3
5.305255586740000e-3 5.439558771330000e-3 5.577261857229999e-3 5.718450913340000e-3
5.863214187420001e-3 6.011642161239999e-3 6.163827607100000e-3 6.319865645860000e-3
6.479853806390000e-3 6.643892086479999e-3 6.812083015400000e-3 6.984531717950000e-3
7.161345980200000e-3 7.342636316810001e-3 7.528516040130000e-3 7.719101331059999e-3
7.914511311600001e-3 8.114868119340001e-3 8.320296983820000e-3 8.530926304770002e-3
8.746887732360001e-3 8.968316249510000e-3 9.195350256269998e-3 9.428131656270001e-3
9.666805945470001e-3 9.911522303069999e-3 1.016243368480000e-2 1.041969691830000e-2
1.068347280160000e-2 1.095392620320000e-2 1.123122616530000e-2 1.151554600930000e-2
1.180706344440000e-2 1.210596067850000e-2 1.241242453220000e-2 1.272664655520000e-2
1.304882314660000e-2 1.337915567730000e-2 1.371785061580000e-2 1.406511965740000e-2
1.442117985680000e-2 1.478625376290000e-2 1.516056955910000e-2 1.554436120470000e-2
1.593786858200000e-2 1.634133764610000e-2 1.675502057810000e-2 1.717917594350000e-2
1.761406885300000e-2 1.805997112890000e-2 1.851716147470000e-2 1.898592564920000e-2
1.946655664530000e-2 1.995935487300000e-2 2.046462834720000e-2 2.098269288030000e-2
2.151387227940000e-2 2.205849854910000e-2 2.261691209850000e-2 2.318946195420000e-2
2.377650597840000e-2 2.437841109290000e-2 2.499555350790000e-2 2.562831895760000e-2
2.627710294080000e-2 2.694231096880000e-2 2.762435881820000e-2 2.832367279110000e-2
2.904068998150000e-2 2.977585854850000e-2 3.052963799630000e-2 3.130249946180000e-2
3.209492600840000e-2 3.290741292850000e-2 3.374046805290000e-2 3.459461206820000e-2
3.547037884220000e-2 3.636831575770000e-2 3.728898405440000e-2 3.823295917990000e-2
3.920083114960000e-2 4.019320491480000e-2 4.121070074150000e-2 4.225395459760001e-2
4.332361855090000e-2 4.442036117610000e-2 4.554486797300000e-2 4.669784179500000e-2
4.788000328830000e-2 4.909209134220000e-2 5.033486355130000e-2 5.160909668870000e-2
5.291558719160000e-2 5.425515165890000e-2 5.562862736220000e-2 5.703687276850000e-2
5.848076807700000e-2 5.996121576920000e-2 6.147914117319999e-2 6.303549304180001e-2
6.463124414540000e-2 6.626739188060000e-2 6.794495889289999e-2 6.966499371629999e-2
7.142857142860000e-2 7.323679432320001e-2 7.509079259829999e-2 7.699172506320000e-2
7.894077986250001e-2 8.093917521910001e-2 8.298816019490001e-2 8.508901547230000e-2
8.724305415430001e-2 8.945162258509999e-2 9.171610119200000e-2 9.403790534770000e-2
9.641848625540000e-2 9.885933185579999e-2 1.013619677570000e-1 1.039279581870000e-1
1.065589069740000e-1 1.092564585470000e-1 1.120222989640000e-1 1.148581569630000e-1
1.177658050500000e-1 1.207470605990000e-1 1.238037869910000e-1 1.269378947800000e-1
1.301513428850000e-1 1.334461398170000e-1 1.368243449300000e-1 1.402880697120000e-1
1.438394791050000e-1 1.474807928550000e-1 1.512142869010000e-1 1.550422947990000e-1
1.589672091780000e-1 1.629914832380000e-1 1.671176322800000e-1 1.713482352830000e-1
1.756859365110000e-1 1.801334471680000e-1 1.846935470940000e-1 1.893690864990000e-1
1.941629877470000e-1 1.990782471830000e-1 2.041179370050000e-1 2.092852071810000e-1
2.145832874250000e-1 2.200154892080000e-1 2.255852078350000e-1 2.312959245600000e-1
2.371512087670000e-1 2.431547201990000e-1 2.493102112470000e-1 2.556215292930000e-1
2.620926191160000e-1 2.687275253570000e-1 2.755303950500000e-1 2.825054802090000e-1
2.896571404890000e-1 2.969898459110000e-1 3.045081796550000e-1 3.122168409240000e-1
3.201206478810000e-1 3.282245406650000e-1 3.365335844710000e-1 3.450529727220000e-1
3.537880303140000e-1 3.627442169410000e-1 3.719271305130000e-1 3.813425106480000e-1
3.909962422660000e-1 4.008943592640001e-1 4.110430482860000e-1 4.214486525940000e-1
4.321176760289999e-1 4.430567870790000e-1 4.542728230430000e-1 4.657727943090000e-1
4.775638887340000e-1 4.896534761360000e-1 5.020491128990000e-1 5.147585467010000e-1
5.277897213519999e-1 5.411507817600000e-1 5.548500790220000e-1 5.688961756449999e-1
5.832978508980000e-1 5.980641062949999e-1 6.132041712270000e-1 6.287275087279999e-1
6.446438213880000e-1 6.609630574220001e-1 6.776954168830000e-1 6.948513580400000e-1
7.124416039150000e-1 7.304771489850000e-1 7.489692660519999e-1 7.679295132910000e-1
7.873697414740000e-1 8.073021013769999e-1 8.277390513729999e-1 8.486933652210000e-1
8.701781400500000e-1 8.922068045430001e-1 9.147931273330000e-1 9.379512256060000e-1
9.616955739289999e-1 9.860410132910001e-1 1.011002760380000e0 1.036596417110000e0
1.062837980350000e0 1.089743851920000e0 1.117330848870000e0 1.145616213980000e0
1.174617626510000e0 1.204353213290000e0 1.234841560040000e0 1.266101722960000e0
1.298153240670000e0 1.331016146420000e0 1.364710980590000e0 1.399258803540000e0
1.434681208800000e0 1.471000336510000e0 1.508238887320000e0 1.546420136540000e0
1.585567948670000e0 1.625706792390000e0 1.666861755780000e0 1.709058562030000e0
1.752323585510000e0 1.796683868270000e0 1.842167136940000e0 1.888801820040000e0
1.936617065760000e0 1.985642760190000e0 2.035909545980000e0 2.087448841520000e0
2.140292860530000e0 2.194474632250000e0 2.250028022050000e0 2.306987752620000e0
2.365389425620000e0 2.425269544020000e0 2.486665534830000e0 2.549615772550000e0
2.614159603120000e0 2.680337368540000e0 2.748190432070000e0 2.817761204090000e0
2.889093168580000e0 2.962230910350000e0 3.037220142860000e0 3.114107736840000e0
3.192941749520000e0 3.273771454740000e0 3.356647373680000e0 3.441621306510000e0
3.528746364680000e0 3.618077004200000e0 3.709669059630000e0 3.803579778980000e0
3.899867859510000e0 3.998593484400000e0 4.099818360390000e0 4.203605756310000e0
4.310020542670000e0 4.419129232170000e0 4.531000021290000e0 4.645702832930000e0
4.763309360070000e0 4.883893110610000e0 5.007529453330000e0 5.134295664980000e0
5.264270978540000e0 5.397536632840000e0 5.534175923230000e0 5.674274253730000e0
5.817919190350000e0 5.965200515860000e0 6.116210285870000e0 6.271042886410000e0
6.429795092890000e0 6.592566130620000e0 6.759457736780000e0 6.930574224070000e0
7.106022545850000e0 7.285912363050000e0 7.470356112650000e0 7.659469078000000e0
7.853369460870000e0 8.052178455290001e0 8.256020323370000e0 8.465022472910000e0
8.679315537050000e0 8.899033455940000e0 9.124313560430000e0 9.355296657920000e0
9.592127120350000e0 9.834952974489999e0 1.008392599440000e1 1.033920179630000e1
1.060093993590000e1 1.086930400800000e1 1.114446174900000e1 1.142658514140000e1
1.171585052140000e1 1.201243868940000e1 1.231653502260000e1 1.262832959120000e1
1.294801727680000e1 1.327579789470000e1 1.361187631850000e1 1.395646260800000e1
1.430977214110000e1 1.467202574750000e1 1.504344984760000e1 1.542427659360000e1
1.581474401460000e1 1.621509616540000e1 1.662558327910000e1 1.704646192360000e1
1.747799516170000e1 1.792045271580000e1 1.837411113610000e1 1.883925397410000e1
1.931617195900000e1 1.980516318020000e1 2.030653327310000e1 2.082059561040000e1
2.134767149760000e1 2.188809037450000e1 2.244219002040000e1 2.301031676560000e1
2.359282570780000e1 2.419008093410000e1 2.480245574850001e1 2.543033290510000e1
2.607410484750000e1 2.673417395430000e1 2.741095279010000e1 2.810486436360000e1
2.881634239230000e1 2.954583157310000e1 3.029378786030000e1 3.106067875120000e1
3.184698357730000e1 3.265319380490000e1 3.347981334160000e1 3.432735885150000e1
3.519636007810000e1 3.608736017550001e1 3.700091604770000e1 3.793759869700000e1
3.889799358040000e1 3.988270097610000e1 4.089233635810000e1 4.192753078160000e1
4.298893127660000e1 4.407720125310000e1 4.519302091520000e1 4.633708768650000e1
4.751011664600000e1 4.871284097500000e1 4.994601241540000e1 5.121040173940000e1
5.250679923160000e1 5.383601518250000e1 5.519888039540001e1 5.659624670540000e1
5.802898751200001e1 5.949799832470000e1 6.100419732330000e1
</PP_R>
<PP_RAB>
3.270649801560000e-5 3.353446695480000e-5 3.438339602750000e-5 3.525381584200000e-5
3.614627043890001e-5 3.706131763160001e-5 3.799952935420000e-5 3.896149201970001e-5
3.994780688600000e-5 4.095909043200000e-5 4.199597474290000e-5 4.305910790500000e-5
4.414915441130000e-5 4.526679557630001e-5 4.641272996210000e-5 4.758767381490000e-5
4.879236151300001e-5 5.002754602540000e-5 5.129399938260001e-5 5.259251315910001e-5
5.392389896839998e-5 5.528898896999999e-5 5.668863638940000e-5 5.812371605200001e-5
5.959512492920000e-5 6.110378269940000e-5 6.265063232290001e-5 6.423664063109999e-5
6.586279893080000e-5 6.753012362380001e-5 6.923965684240001e-5 7.099246710039999e-5
7.278964996140001e-5 7.463232872310000e-5 7.652165511969999e-5 7.845881004180000e-5
8.044500427419999e-5 8.248147925300000e-5 8.456950784130001e-5 8.671039512500000e-5
8.890547922830001e-5 9.115613215029999e-5 9.346376062219999e-5 9.582980698700000e-5
9.825575010070001e-5 1.007431062570000e-4 1.032934301340000e-4 1.059083157670000e-4
1.085893975450000e-4 1.113383512320000e-4 1.141568950120000e-4 1.170467905680000e-4
1.200098441780000e-4 1.230479078480000e-4 1.261628804650000e-4 1.293567089900000e-4
1.326313896680000e-4 1.359889692830000e-4 1.394315464310000e-4 1.429612728330000e-4
1.465803546860000e-4 1.502910540310000e-4 1.540956901770000e-4 1.579966411470000e-4
1.619963451600000e-4 1.660973021620000e-4 1.703020753850000e-4 1.746132929490000e-4
1.790336495050000e-4 1.835659079200000e-4 1.882129010030000e-4 1.929775332760000e-4
1.978627827900000e-4 2.028717029840000e-4 2.080074245960000e-4 2.132731576190000e-4
2.186721933090000e-4 2.242079062380000e-4 2.298837564070000e-4 2.357032914070000e-4
2.416701486370000e-4 2.477880575770000e-4 2.540608421190000e-4 2.604924229579999e-4
2.670868200400000e-4 2.738481550800000e-4 2.807806541310000e-4 2.878886502320000e-4
2.951765861100000e-4 3.026490169630000e-4 3.103106133040000e-4 3.181661638800000e-4
3.262205786660000e-4 3.344788919320001e-4 3.429462653940000e-4 3.516279914360000e-4
3.605294964190000e-4 3.696563440730000e-4 3.790142389760000e-4 3.886090301160000e-4
3.984467145510000e-4 4.085334411520000e-4 4.188755144530000e-4 4.294793985860000e-4
4.403517213240001e-4 4.514992782229999e-4 4.629290368680000e-4 4.746481412300000e-4
4.866639161319999e-4 4.989838718240000e-4 5.116157086790000e-4 5.245673220060000e-4
5.378468069859999e-4 5.514624637290001e-4 5.654228024630000e-4 5.797365488540000e-4
5.944126494610000e-4 6.094602773230000e-4 6.248888376980001e-4 6.407079739390000e-4
6.569275735200000e-4 6.735577742200000e-4 6.906089704539999e-4 7.080918197769998e-4
7.260172495370001e-4 7.443964637120000e-4 7.632409499080000e-4 7.825624865449999e-4
8.023731502090000e-4 8.226853232120000e-4 8.435117013229998e-4 8.648653017059999e-4
8.867594710559999e-4 9.092078939420000e-4 9.322246013589998e-4 9.558239794980000e-4
9.800207787390001e-4 1.004830122870000e-3 1.030267518540000e-3 1.056348864940000e-3
1.083090463770000e-3 1.110509029400000e-3 1.138621699320000e-3 1.167446044870000e-3
1.197000082210000e-3 1.227302283560000e-3 1.258371588780000e-3 1.290227417220000e-3
1.322889679790000e-3 1.356378791470000e-3 1.390715684060000e-3 1.425921819210000e-3
1.462019201920000e-3 1.499030394230000e-3 1.536978529330000e-3 1.575887326040000e-3
1.615781103640000e-3 1.656684797020000e-3 1.698623972320000e-3 1.741624842910000e-3
1.785714285710000e-3 1.830919858080000e-3 1.877269814960000e-3 1.924793126580000e-3
1.973519496560000e-3 2.023479380480000e-3 2.074704004870000e-3 2.127225386810000e-3
2.181076353860000e-3 2.236290564630000e-3 2.292902529800000e-3 2.350947633690001e-3
2.410462156390000e-3 2.471483296390000e-3 2.534049193920000e-3 2.598198954680000e-3
2.663972674360000e-3 2.731411463680000e-3 2.800557474090000e-3 2.871453924080000e-3
2.944145126250000e-3 3.018676514960000e-3 3.095094674760000e-3 3.173447369490000e-3
3.253783572130000e-3 3.336153495410000e-3 3.420608623240000e-3 3.507201742800000e-3
3.595986977630000e-3 3.687019821370000e-3 3.780357172520000e-3 3.876057369970000e-3
3.974180229450000e-3 4.074787080949999e-3 4.177940807010000e-3 4.283705882080000e-3
4.392148412780000e-3 4.503336179210001e-3 4.617338677350000e-3 4.734227162470000e-3
4.854074693679999e-3 4.976956179580000e-3 5.102948425110000e-3 5.232130179520000e-3
5.364582185620000e-3 5.500387230210000e-3 5.639630195870000e-3 5.782398113999999e-3
5.928780219170000e-3 6.078868004980000e-3 6.232755281180000e-3 6.390538232320000e-3
6.552315477890001e-3 6.718188133930001e-3 6.888259876239999e-3 7.062637005220001e-3
7.241428512220000e-3 7.424746147780001e-3 7.612704491370000e-3 7.805421023090000e-3
8.003016197030000e-3 8.205613516620001e-3 8.413339611770001e-3 8.626324318050001e-3
8.844700757850001e-3 9.068605423540001e-3 9.298178262820000e-3 9.533562766199999e-3
9.774906056659999e-3 1.002235898160000e-2 1.027607620720000e-2 1.053621631490000e-2
1.080294190070000e-2 1.107641967700000e-2 1.135682057610000e-2 1.164431985770000e-2
1.193909721840000e-2 1.224133690340000e-2 1.255122782250000e-2 1.286896366750000e-2
1.319474303380000e-2 1.352876954400000e-2 1.387125197550000e-2 1.422240439110000e-2
1.458244627240000e-2 1.495160265740000e-2 1.533010428070000e-2 1.571818771820000e-2
1.611609553470000e-2 1.652407643550000e-2 1.694238542210000e-2 1.737128395100000e-2
1.781104009790000e-2 1.826192872460000e-2 1.872423165130000e-2 1.919823783230000e-2
1.968424353690000e-2 2.018255253440000e-2 2.069347628430000e-2 2.121733413050000e-2
2.175445350130000e-2 2.230517011360000e-2 2.286982818330000e-2 2.344878064020000e-2
2.404238934820000e-2 2.465102533230000e-2 2.527506900960000e-2 2.591491042780000e-2
2.657094950870000e-2 2.724359629800000e-2 2.793327122180000e-2 2.864040534940000e-2
2.936544066270000e-2 3.010883033230000e-2 3.087103900100000e-2 3.165254307400000e-2
3.245383101690000e-2 3.327540366050000e-2 3.411777451470000e-2 3.498147008860000e-2
3.586703022000000e-2 3.677500841290000e-2 3.770597218310000e-2 3.866050341340000e-2
3.963919871690000e-2 4.064266980990000e-2 4.167154389450000e-2 4.272646405070000e-2
4.380808963770000e-2 4.491709670680000e-2 4.605417842360000e-2 4.722004550100000e-2
4.841542664399999e-2 4.964106900480000e-2 5.089773864960000e-2 5.218622103790000e-2
5.350732151320000e-2 5.486186580630000e-2 5.625070055130000e-2 5.767469381540000e-2
5.913473564050000e-2 6.063173860040000e-2 6.216663837070000e-2 6.374039431370000e-2
6.535399007800001e-2 6.700843421360001e-2 6.870476080180000e-2 7.044403010210000e-2
7.222732921440000e-2 7.405577275859999e-2 7.593050357150000e-2 7.785269342090000e-2
7.982354373800000e-2 8.184428636849999e-2 8.391618434210001e-2 8.604053266270000e-2
8.821865911700000e-2 9.045192510510001e-2 9.274172649079999e-2 9.508949447450000e-2
9.749669648780001e-2 9.996483711010001e-2 1.024954590100000e-1 1.050901439080000e-1
1.077505135670000e-1 1.104782308040000e-1 1.132750005320000e-1 1.161425708230000e-1
1.190827340020000e-1 1.220973277650000e-1 1.251882363330000e-1 1.283573916240000e-1
1.316067744640000e-1 1.349384158210000e-1 1.383543980810000e-1 1.418568563430000e-1
1.454479797590000e-1 1.491300128970000e-1 1.529052571470000e-1 1.567760721600000e-1
1.607448773220000e-1 1.648141532650000e-1 1.689864434200000e-1 1.732643556020000e-1
1.776505636460000e-1 1.821478090760000e-1 1.867589028160000e-1 1.914867269500000e-1
1.963342365220000e-1 2.013044613820000e-1 2.064005080840000e-1 2.116255618230000e-1
2.169828884260000e-1 2.224758363990000e-1 2.281078390110000e-1 2.338824164480000e-1
2.398031780090000e-1 2.458738243620000e-1 2.520981498600000e-1 2.584800449070000e-1
2.650234983970000e-1 2.717326002010000e-1 2.786115437260000e-1 2.856646285350000e-1
2.928962630360000e-1 3.003109672350000e-1 3.079133755660000e-1 3.157082397790000e-1
3.237004319200000e-1 3.318949473680000e-1 3.402969079620000e-1 3.489115652010000e-1
3.577443035260000e-1 3.668006436870000e-1 3.760862461900000e-1 3.856069148400000e-1
3.953686003650000e-1 4.053774041340000e-1 4.156395819780000e-1 4.261615480900000e-1
4.369498790430000e-1 4.480113178940000e-1 4.593527784030000e-1 4.709813493520000e-1
4.829042989750000e-1 4.951290795060000e-1 5.076633318280001e-1 5.205148902600000e-1
5.336917874410000e-1 5.472022593630000e-1 5.610547505100000e-1 5.752579191400001e-1
5.898206426960000e-1 6.047520233530000e-1 6.200613937120000e-1 6.357583226259999e-1
6.518526211880000e-1 6.683543488580001e-1 6.852738197520000e-1 7.026216090910000e-1
7.204085598080000e-1 7.386457893270000e-1 7.573446965090000e-1 7.765169687790000e-1
7.961745894330000e-1 8.163298451230000e-1 8.369953335400000e-1 8.581839712870000e-1
8.799090019519999e-1 9.021840043870000e-1 9.250229011929999e-1 9.484399674250000e-1
9.724498395110000e-1 9.970675244020001e-1 1.022308408950000e0 1.048188269540000e0
1.074723281910000e0 1.101930031330000e0 1.129825522880000e0 1.158427192160000e0
1.187752916150000e0 1.217821024380000e0 1.248650310390000e0 1.280260043490000e0
1.312669980790000e0 1.345900379560000e0 1.379972009880000e0 1.414906167630000e0
1.450724687800000e0 1.487449958120000e0 1.525104933080000e0
</PP_RAB>
</PP_MESH>
<PP_LOCAL columns="4">
-1.850874196950000e1 -1.850874063520000e1 -1.850873923250000e1 -1.850873775790000e1
-1.850873620770000e1 -1.850873457800000e1 -1.850873286480000e1 -1.850873106370000e1
-1.850872917030000e1 -1.850872717980000e1 -1.850872508720000e1 -1.850872288740000e1
-1.850872057470000e1 -1.850871814350000e1 -1.850871558770000e1 -1.850871290080000e1
-1.850871007610000e1 -1.850870710660000e1 -1.850870398490000e1 -1.850870070310000e1
-1.850869725310000e1 -1.850869362610000e1 -1.850868981330000e1 -1.850868580490000e1
-1.850868159100000e1 -1.850867716110000e1 -1.850867250400000e1 -1.850866760820000e1
-1.850866246130000e1 -1.850865705060000e1 -1.850865136250000e1 -1.850864538270000e1
-1.850863909630000e1 -1.850863248770000e1 -1.850862554020000e1 -1.850861823650000e1
-1.850861055830000e1 -1.850860248650000e1 -1.850859400080000e1 -1.850858508010000e1
-1.850857570200000e1 -1.850856584300000e1 -1.850855547870000e1 -1.850854458290000e1
-1.850853312850000e1 -1.850852108680000e1 -1.850850842770000e1 -1.850849511960000e1
-1.850848112920000e1 -1.850846642160000e1 -1.850845095980000e1 -1.850843470540000e1
-1.850841761750000e1 -1.850839965360000e1 -1.850838076870000e1 -1.850836091550000e1
-1.850834004450000e1 -1.850831810350000e1 -1.850829503750000e1 -1.850827078900000e1
-1.850824529720000e1 -1.850821849860000e1 -1.850819032590000e1 -1.850816070890000e1
-1.850812957350000e1 -1.850809684180000e1 -1.850806243200000e1 -1.850802625810000e1
-1.850798822960000e1 -1.850794825140000e1 -1.850790622360000e1 -1.850786204120000e1
-1.850781559360000e1 -1.850776676480000e1 -1.850771543270000e1 -1.850766146890000e1
-1.850760473860000e1 -1.850754509980000e1 -1.850748240370000e1 -1.850741649330000e1
-1.850734720390000e1 -1.850727436240000e1 -1.850719778670000e1 -1.850711728530000e1
-1.850703265690000e1 -1.850694369020000e1 -1.850685016270000e1 -1.850675184050000e1
-1.850664847810000e1 -1.850653981700000e1 -1.850642558560000e1 -1.850630549840000e1
-1.850617925540000e1 -1.850604654100000e1 -1.850590702360000e1 -1.850576035450000e1
-1.850560616720000e1 -1.850544407640000e1 -1.850527367700000e1 -1.850509454340000e1
-1.850490622780000e1 -1.850470825990000e1 -1.850450014500000e1 -1.850428136320000e1
-1.850405136800000e1 -1.850380958480000e1 -1.850355540960000e1 -1.850328820770000e1
-1.850300731150000e1 -1.850271201970000e1 -1.850240159470000e1 -1.850207526150000e1
-1.850173220500000e1 -1.850137156890000e1 -1.850099245260000e1 -1.850059390990000e1
-1.850017494590000e1 -1.849973451470000e1 -1.849927151740000e1 -1.849878479830000e1
-1.849827314310000e1 -1.849773527520000e1 -1.849716985280000e1 -1.849657546550000e1
-1.849595063080000e1 -1.849529379070000e1 -1.849460330730000e1 -1.849387745920000e1
-1.849311443720000e1 -1.849231233960000e1 -1.849146916780000e1 -1.849058282120000e1
-1.848965109180000e1 -1.848867165950000e1 -1.848764208540000e1 -1.848655980660000e1
-1.848542212960000e1 -1.848422622370000e1 -1.848296911410000e1 -1.848164767440000e1
-1.848025861930000e1 -1.847879849650000e1 -1.847726367820000e1 -1.847565035190000e1
-1.847395451190000e1 -1.847217194900000e1 -1.847029824030000e1 -1.846832873890000e1
-1.846625856200000e1 -1.846408257980000e1 -1.846179540270000e1 -1.845939136850000e1
-1.845686452860000e1 -1.845420863420000e1 -1.845141712090000e1 -1.844848309320000e1
-1.844539930820000e1 -1.844215815840000e1 -1.843875165360000e1 -1.843517140210000e1
-1.843140859090000e1 -1.842745396540000e1 -1.842329780730000e1 -1.841892991220000e1
-1.841433956600000e1 -1.840951552010000e1 -1.840444596570000e1 -1.839911850650000e1
-1.839352013060000e1 -1.838763718110000e1 -1.838145532530000e1 -1.837495952250000e1
-1.836813399050000e1 -1.836096217080000e1 -1.835342669220000e1 -1.834550933250000e1
-1.833719097970000e1 -1.832845159040000e1 -1.831927014720000e1 -1.830962461460000e1
-1.829949189250000e1 -1.828884776880000e1 -1.827766686940000e1 -1.826592260720000e1
-1.825358712900000e1 -1.824063126010000e1 -1.822702444800000e1 -1.821273470370000e1
-1.819772854110000e1 -1.818197091550000e1 -1.816542515930000e1 -1.814805291710000e1
-1.812981407810000e1 -1.811066670820000e1 -1.809056697980000e1 -1.806946910120000e1
-1.804732524400000e1 -1.802408547070000e1 -1.799969766050000e1 -1.797410743620000e1
-1.794725808930000e1 -1.791909050690000e1 -1.788954309850000e1 -1.785855172390000e1
-1.782604962320000e1 -1.779196734840000e1 -1.775623269810000e1 -1.771877065630000e1
-1.767950333400000e1 -1.763834991820000e1 -1.759522662470000e1 -1.755004666020000e1
-1.750272019140000e1 -1.745315432490000e1 -1.740125309710000e1 -1.734691747800000e1
-1.729004538840000e1 -1.723053173440000e1 -1.716826845870000e1 -1.710314461340000e1
-1.703504645520000e1 -1.696385756560000e1 -1.688945899860000e1 -1.681172945960000e1
-1.673054551720000e1 -1.664578185230000e1 -1.655731154680000e1 -1.646500641570000e1
-1.636873738590000e1 -1.626837492660000e1 -1.616378953260000e1 -1.605485226690000e1
-1.594143536430000e1 -1.582341290110000e1 -1.570066153330000e1 -1.557306130790000e1
-1.544049654920000e1 -1.530285682350000e1 -1.516003798420000e1 -1.501194329850000e1
-1.485848465730000e1 -1.469958386720000e1 -1.453517402310000e1 -1.436520096020000e1
-1.418962477940000e1 -1.400842144070000e1 -1.382158441720000e1 -1.362912639820000e1
-1.343108102940000e1 -1.322750467360000e1 -1.301847817480000e1 -1.280410860090000e1
-1.258453094280000e1 -1.235990973820000e1 -1.213044058870000e1 -1.189635153250000e1
-1.165790423420000e1 -1.141539494650000e1 -1.116915519700000e1 -1.091955215240000e1
-1.066698860770000e1 -1.041190254750000e1 -1.015476622980000e1 -9.896084740359999e0
-9.636393970580000e0 -9.376257978989999e0 -9.116265700590001e0 -8.857026981060001e0
-8.599167923800000e0 -8.343325554000000e0 -8.090141821380000e0 -7.840256984500000e0
-7.594302442200000e0 -7.352893103300000e0 -7.116619411930000e0 -6.886039172880000e0
-6.661669348160000e0 -6.443978020230000e0 -6.233376739010000e0 -6.030213486020000e0
-5.834766498710000e0 -5.647239198940000e0 -5.467756460850000e0 -5.296362432340000e0
-5.133020091260000e0 -4.977612671350000e0 -4.829947033710000e0 -4.689758989520000e0
-4.556720500450000e0 -4.430448597640000e0 -4.310515774300000e0 -4.196461523700000e0
-4.087804622190000e0 -3.984055699530000e0 -3.884729603980000e0 -3.789357060810000e0
-3.697495144380000e0 -3.608736136820000e0 -3.522714428880000e0 -3.439111227600000e0
-3.357656962970000e0 -3.278131423650000e0 -3.200361788020000e0 -3.124218840080000e0
-3.049611759500000e0 -2.976481940790000e0 -2.904796324340000e0 -2.834540707690000e0
-2.765713454260000e0 -2.698319932800000e0 -2.632367917700000e0 -2.567864067370000e0
-2.504811490520000e0 -2.443208317430000e0 -2.383047125400000e0 -2.324315026800000e0
-2.266994216070000e0 -2.211062783910000e0 -2.156495636550000e0 -2.103265397690000e0
-2.051343212790000e0 -2.000699413630000e0 -1.951304032170000e0 -1.903127173320000e0
-1.856139268830000e0 -1.810311238670000e0 -1.765614585300000e0 -1.722021442570000e0
-1.679504595820000e0 -1.638037484770000e0 -1.597594196950000e0 -1.558149456270000e0
-1.519678609300000e0 -1.482157610790000e0 -1.445563009010000e0 -1.409871931150000e0
-1.375062069140000e0 -1.341111665690000e0 -1.307999500680000e0 -1.275704877950000e0
-1.244207612280000e0 -1.213488016880000e0 -1.183526890990000e0 -1.154305507940000e0
-1.125805603400000e0 -1.098009364010000e0 -1.070899416220000e0 -1.044458815430000e0
-1.018671035390000e0 -9.935199579119999e-1 -9.689898627500000e-1 -9.450654177950000e-1
-9.217316694899999e-1 -8.989740334840000e-1 -8.767782855129999e-1 -8.551305525120000e-1
-8.340173039440000e-1 -8.134253433390001e-1 -7.933418000540000e-1 -7.737541212190000e-1
-7.546500638980000e-1 -7.360176874320000e-1 -7.178453459810000e-1 -7.001216812380000e-1
-6.828356153380000e-1 -6.659763439250001e-1 -6.495333294060000e-1 -6.334962943630000e-1
-6.178552151250000e-1 -6.026003155100001e-1 -5.877220607080000e-1 -5.732111513270000e-1
-5.590585175740000e-1 -5.452553135940001e-1 -5.317929119340000e-1 -5.186628981560000e-1
-5.058570655730001e-1 -4.933674101230000e-1 -4.811861253640000e-1 -4.693055975980000e-1
-4.577184011080000e-1 -4.464172935180001e-1 -4.353952112690000e-1 -4.246452652009999e-1
-4.141607362460000e-1 -4.039350712340000e-1 -3.939618787900000e-1 -3.842349253450000e-1
-3.747481312370000e-1 -3.654955669090000e-1 -3.564714492090000e-1 -3.476701377690000e-1
-3.390861314820000e-1 -3.307140650660000e-1 -3.225487057060000e-1 -3.145849497870000e-1
-3.068178197020000e-1 -2.992424607420000e-1 -2.918541380620000e-1 -2.846482337180000e-1
-2.776202437870000e-1 -2.707657755450000e-1 -2.640805447270000e-1 -2.575603728460000e-1
-2.512011845820000e-1 -2.449990052360000e-1 -2.389499582440000e-1 -2.330502627540000e-1
-2.272962312650000e-1 -2.216842673200000e-1 -2.162108632580000e-1 -2.108725980230000e-1
-2.056661350270000e-1 -2.005882200610000e-1 -1.956356792610000e-1 -1.908054171300000e-1
-1.860944145950000e-1 -1.814997271280000e-1 -1.770184828980000e-1 -1.726478809830000e-1
-1.683851896130000e-1 -1.642277444690000e-1 -1.601729470100000e-1 -1.562182628580000e-1
-1.523612202050000e-1 -1.485994082750000e-1 -1.449304758120000e-1 -1.413521296150000e-1
-1.378621330990000e-1 -1.344583049050000e-1 -1.311385175290000e-1
</PP_LOCAL>
<PP_NONLOCAL>
<PP_BETA.1 index="1" label="3S" angular_momentum="0" cutoff_radius_index="359" cutoff_radius="0.000000000000e0" ultrasoft_cutoff_radius="0.000000000000e0">
5.624661098010000e-3 5.767050555550001e-3 5.913044569320000e-3 6.062734728560000e-3
6.216214148490000e-3 6.373578996910001e-3 6.534927578160000e-3 6.700360638360001e-3
6.869981976050000e-3 7.043897220800000e-3 7.222215359750001e-3 7.405047516230000e-3
7.592508476359999e-3 7.784714856920000e-3 7.981786937280000e-3 8.183848353930001e-3
8.391024879090001e-3 8.603446252510000e-3 8.821245265389999e-3 9.044558065579999e-3
9.273524157370000e-3 9.508286706720000e-3 9.748992235699999e-3 9.995791538330002e-3
1.024883906970000e-2 1.050829264030000e-2 1.077431433220000e-2 1.104707080340000e-2
1.132673237220000e-2 1.161347362740000e-2 1.190747434370000e-2 1.220891826040000e-2
1.251799338610000e-2 1.283489291440000e-2 1.315981552880000e-2 1.349296387540000e-2
1.383454670010000e-2 1.418477701570000e-2 1.454387393340000e-2 1.491206205170000e-2
1.528957176060000e-2 1.567663863090000e-2 1.607350493920000e-2 1.648041875200000e-2
1.689763453440000e-2 1.732541315020000e-2 1.776402186010000e-2 1.821373523650000e-2
1.867483455220000e-2 1.914760777860000e-2 1.963235050020000e-2 2.012936621890000e-2
2.063896513020000e-2 2.116146687020000e-2 2.169719715460000e-2 2.224649174560000e-2
2.280969400770000e-2 2.338715582100000e-2 2.397923879950000e-2 2.458631306740000e-2
2.520875847740000e-2 2.584696430170000e-2 2.650132953420000e-2 2.717226380250000e-2