<UPF version="2.0.1">
<PP_INFO>
Generated by new atomic code, or converted to UPF format
Author:
Generation date:
Pseudopotential type: NC
Element: Si
Functional:  SLA  PW   PBE  PBE
Suggested minimum cutoff for wavefunctions:   0. Ry
Suggested minimum cutoff for charge density:   0. Ry
The Pseudo was generated with a Non-Relativistic Calculation
L component and cutoff radius for Local Potential:  0   0.0000
Valence configuration:
nl pn  l   occ       Rcut    Rcut US       E pseu
3S  0  0  2.00      2.500      2.600     0.000000
3P  0  1  2.00      2.500      2.600     0.000000
Generation configuration: not available.
</PP_INFO>
<!--
END OF HUMAN READABLE SECTION
-->
<PP_HEADER generated="Generated by new atomic code, or converted to UPF format" author="" date="" comment="" element="Si" pseudo_type="NC" relativistic="no" is_ultrasoft="false" is_paw="false" is_coulomb="false" has_so="false" has_wfc="false" has_gipaw="false" paw_as_gipaw="false" core_correction="false" functional=" SLA  PW   PBE  PBE" z_valence="4.000000000000e0" total_psenergy="-7.474808322700e0" wfc_cutoff="0.000000000000e0" rho_cutoff="0.000000000000e0" l_max="2" l_max_rho="0" l_local="0" mesh_size="883" number_of_wfc="2" number_of_proj="3"/>
<PP_MESH dx="1.500000000000e-2" mesh="883" xmin="-5.999999999999e0" rmax="9.858732172050e1" zmesh="1.400000000000e1">
<PP_R>
1.770537269050000e-4 1.797295513200000e-4 1.824458156420000e-4 1.852031310430000e-4
1.880021179300000e-4 1.908434060860000e-4 1.937276348130000e-4 1.966554530760000e-4
1.996275196450000e-4 2.026445032490000e-4 2.057070827210000e-4 2.088159471540000e-4
2.119717960560000e-4 2.151753395060000e-4 2.184272983160000e-4 2.217284041890000e-4
2.250793998890000e-4 2.284810394030000e-4 2.319340881150000e-4 2.354393229750000e-4
2.389975326770000e-4 2.426095178310000e-4 2.462760911500000e-4 2.499980776290000e-4
2.537763147300000e-4 2.576116525730000e-4 2.615049541240000e-4 2.654570953930000e-4
2.694689656280000e-4 2.735414675170000e-4 2.776755173910000e-4 2.818720454280000e-4
2.861319958640000e-4 2.904563272060000e-4 2.948460124470000e-4 2.993020392850000e-4
3.038254103440000e-4 3.084171434020000e-4 3.130782716190001e-4 3.178098437680000e-4
3.226129244720000e-4 3.274885944460000e-4 3.324379507350000e-4 3.374621069650000e-4
3.425621935930000e-4 3.477393581590000e-4 3.529947655490000e-4 3.583295982490000e-4
3.637450566210000e-4 3.692423591659999e-4 3.748227427990000e-4 3.804874631299999e-4
3.862377947460000e-4 3.920750314950000e-4 3.980004867800000e-4 4.040154938540000e-4
4.101214061180000e-4 4.163195974290001e-4 4.226114624060000e-4 4.289984167450001e-4
4.354818975370000e-4 4.420633635930000e-4 4.487442957720001e-4 4.555261973090001e-4
4.624105941640000e-4 4.693990353520000e-4 4.764930933040000e-4 4.836943642120000e-4
4.910044683930000e-4 4.984250506500000e-4 5.059577806469999e-4 5.136043532780000e-4
5.213664890560000e-4 5.292459344939999e-4 5.372444625000000e-4 5.453638727760000e-4
5.536059922240000e-4 5.619726753559999e-4 5.704658047110001e-4 5.790872912789999e-4
5.878390749299999e-4 5.967231248529999e-4 6.057414399970000e-4 6.148960495200000e-4
6.241890132479999e-4 6.336224221380000e-4 6.431983987450001e-4 6.529190977060001e-4
6.627867062190001e-4 6.728034445360001e-4 6.829715664670001e-4 6.932933598819999e-4
7.037711472280001e-4 7.144072860500001e-4 7.252041695260001e-4 7.361642270000001e-4
7.472899245300001e-4 7.585837654470001e-4 7.700482909100000e-4 7.816860804879999e-4
7.934997527319999e-4 8.054919657669998e-4 8.176654178929999e-4 8.300228481880001e-4
8.425670371250000e-4 8.553008072000001e-4 8.682270235650000e-4 8.813485946740000e-4
8.946684729339999e-4 9.081896553749999e-4 9.219151843199999e-4 9.358481480710001e-4
9.499916816030002e-4 9.643489672719998e-4 9.789232355260001e-4 9.937177656379998e-4
1.008735886440000e-3 1.023980977070000e-3 1.039456467740000e-3 1.055165840510000e-3
1.071112630030000e-3 1.087300424420000e-3 1.103732865990000e-3 1.120413652120000e-3
1.137346536040000e-3 1.154535327730000e-3 1.171983894740000e-3 1.189696163060000e-3
1.207676118050000e-3 1.225927805260000e-3 1.244455331390000e-3 1.263262865230000e-3
1.282354638540000e-3 1.301734947050000e-3 1.321408151420000e-3 1.341378678190000e-3
1.361651020830000e-3 1.382229740690000e-3 1.403119468080000e-3 1.424324903260000e-3
1.445850817560000e-3 1.467702054390000e-3 1.489883530370000e-3 1.512400236440000e-3
1.535257238930000e-3 1.558459680790000e-3 1.582012782650000e-3 1.605921844050000e-3
1.630192244650000e-3 1.654829445380000e-3 1.679838989710000e-3 1.705226504910000e-3
1.730997703260000e-3 1.757158383400000e-3 1.783714431590000e-3 1.810671823050000e-3
1.838036623310000e-3 1.865814989570000e-3 1.894013172060000e-3 1.922637515520000e-3
1.951694460520000e-3 1.981190545010000e-3 2.011132405740000e-3 2.041526779730000e-3
2.072380505870000e-3 2.103700526360000e-3 2.135493888350000e-3 2.167767745470000e-3
2.200529359480000e-3 2.233786101880000e-3 2.267545455580000e-3 2.301815016570000e-3
2.336602495640000e-3 2.371915720140000e-3 2.407762635680000e-3 2.444151307980000e-3
2.481089924620000e-3 2.518586796970000e-3 2.556650361980000e-3 2.595289184100000e-3
2.634511957230000e-3 2.674327506670000e-3 2.714744791080000e-3 2.755772904530000e-3
2.797421078500000e-3 2.839698684020000e-3 2.882615233720000e-3 2.926180384010000e-3
2.970403937230000e-3 3.015295843860000e-3 3.060866204790000e-3 3.107125273520000e-3
3.154083458550000e-3 3.201751325660001e-3 3.250139600330000e-3 3.299259170120000e-3
3.349121087140000e-3 3.399736570540000e-3 3.451117009000000e-3 3.503273963360000e-3
3.556219169130000e-3 3.609964539220000e-3 3.664522166570000e-3 3.719904326850000e-3
3.776123481310000e-3 3.833192279480000e-3 3.891123562080000e-3 3.949930363910000e-3
4.009625916720000e-3 4.070223652290000e-3 4.131737205350000e-3 4.194180416710000e-3
4.257567336350000e-3 4.321912226609999e-3 4.387229565360000e-3 4.453534049260000e-3
4.520840597120000e-3 4.589164353179999e-3 4.658520690580000e-3 4.728925214790000e-3
4.800393767120000e-3 4.872942428310000e-3 4.946587522100000e-3 5.021345618940000e-3
5.097233539739999e-3 5.174268359590000e-3 5.252467411649999e-3 5.331848291029999e-3
5.412428858769999e-3 5.494227245850000e-3 5.577261857229999e-3 5.661551376050000e-3
5.747114767819999e-3 5.833971284660000e-3 5.922140469660000e-3 6.011642161239999e-3
6.102496497670000e-3 6.194723921550000e-3 6.288345184460001e-3 6.383381351550000e-3
6.479853806390000e-3 6.577784255659999e-3 6.677194734150000e-3 6.778107609620000e-3
6.880545587889999e-3 6.984531717950000e-3 7.090089397120001e-3 7.197242376310000e-3
7.306014765400000e-3 7.416431038630000e-3 7.528516040130000e-3 7.642294989510000e-3
7.757793487500000e-3 7.875037521750000e-3 7.994053472670000e-3 8.114868119340001e-3
8.237508645580000e-3 8.362002646010001e-3 8.488378132310000e-3 8.616663539510000e-3
8.746887732360001e-3 8.879080011840001e-3 9.013270121790001e-3 9.149488255540000e-3
9.287765062740000e-3 9.428131656270001e-3 9.570619619199999e-3 9.715261011920001e-3
9.862088379350000e-3 1.001113475830000e-2 1.016243368480000e-2 1.031601920170000e-2
1.047192586650000e-2 1.063018875870000e-2 1.079084348830000e-2 1.095392620320000e-2
1.111947359770000e-2 1.128752292070000e-2 1.145811198390000e-2 1.163127917070000e-2
1.180706344440000e-2 1.198550435720000e-2 1.216664205900000e-2 1.235051730660000e-2
1.253717147260000e-2 1.272664655520000e-2 1.291898518690000e-2 1.311423064480000e-2
1.331242686000000e-2 1.351361842730000e-2 1.371785061580000e-2 1.392516937850000e-2
1.413562136310000e-2 1.434925392220000e-2 1.456611512390000e-2 1.478625376290000e-2
1.500971937150000e-2 1.523656223020000e-2 1.546683337970000e-2 1.570058463200000e-2
1.593786858200000e-2 1.617873861970000e-2 1.642324894190000e-2 1.667145456440000e-2
1.692341133440000e-2 1.717917594350000e-2 1.743880593950000e-2 1.770235974050000e-2
1.796989664710000e-2 1.824147685630000e-2 1.851716147470000e-2 1.879701253260000e-2
1.908109299760000e-2 1.936946678900000e-2 1.966219879210000e-2 1.995935487300000e-2
2.026100189280000e-2 2.056720772360000e-2 2.087804126290000e-2 2.119357244960000e-2
2.151387227940000e-2 2.183901282130000e-2 2.216906723320000e-2 2.250410977880000e-2
2.284421584400000e-2 2.318946195420000e-2 2.353992579110000e-2 2.389568621060000e-2
2.425682326040000e-2 2.462341819770000e-2 2.499555350790000e-2 2.537331292320000e-2
2.575678144090000e-2 2.614604534310000e-2 2.654119221590000e-2 2.694231096880000e-2
2.734949185540000e-2 2.776282649300000e-2 2.818240788370000e-2 2.860833043510000e-2
2.904068998150000e-2 2.947958380560000e-2 2.992511066050000e-2 3.037737079160000e-2
3.083646595920000e-2 3.130249946180000e-2 3.177557615880000e-2 3.225580249450000e-2
3.274328652180000e-2 3.323813792670000e-2 3.374046805290000e-2 3.425038992679999e-2
3.476801828290000e-2 3.529346958970000e-2 3.582686207610000e-2 3.636831575770000e-2
3.691795246370000e-2 3.747589586480000e-2 3.804227150050000e-2 3.861720680780000e-2
3.920083114960000e-2 3.979327584370001e-2 4.039467419279999e-2 4.100516151400000e-2
4.162487516960000e-2 4.225395459760001e-2 4.289254134369999e-2 4.354077909260000e-2
4.419881370040000e-2 4.486679322780001e-2 4.554486797300000e-2 4.623319050559999e-2
4.693191570110001e-2 4.764120077560000e-2 4.836120532130000e-2 4.909209134220000e-2
4.983402329080000e-2 5.058716810480000e-2 5.135169524509999e-2 5.212777673350000e-2
5.291558719160000e-2 5.371530388000000e-2 5.452710673830000e-2 5.535117842580000e-2
5.618770436190000e-2 5.703687276850000e-2 5.789887471220000e-2 5.877390414690000e-2
5.966215795789999e-2 6.056383600629999e-2 6.147914117319999e-2 6.240827940629999e-2
6.335145976550000e-2 6.430889447040000e-2 6.528079894790000e-2 6.626739188060000e-2
6.726889525599999e-2 6.828553441660000e-2 6.931753811060000e-2 7.036513854310000e-2
7.142857142860000e-2 7.250807604400000e-2 7.360389528239999e-2 7.471627570779999e-2
7.584546761039999e-2 7.699172506320000e-2 7.815530597890000e-2 7.933647216830000e-2
8.053548939850000e-2 8.175262745370000e-2 8.298816019490001e-2 8.424236562219999e-2
8.551552593729999e-2 8.680792760640001e-2 8.811986142549999e-2 8.945162258509999e-2
9.080351073719999e-2 9.217583006230001e-2 9.356888933810000e-2 9.498300200870000e-2
9.641848625540000e-2 9.787566506839999e-2 9.935486631880000e-2 1.008564228330000e-1
1.023806724690000e-1 1.039279581870000e-1 1.054986281340000e-1 1.070930357180000e-1
1.087115396870000e-1 1.103545042110000e-1 1.120222989640000e-1 1.137152992060000e-1
1.154338858710000e-1 1.171784456470000e-1 1.189493710680000e-1 1.207470605990000e-1
1.225719187270000e-1 1.244243560550000e-1 1.263047893880000e-1 1.282136418310000e-1
1.301513428850000e-1 1.321183285400000e-1 1.341150413760000e-1 1.361419306620000e-1
1.381994524570000e-1 1.402880697120000e-1 1.424082523750000e-1 1.445604774940000e-1
1.467452293320000e-1 1.489629994650000e-1 1.512142869010000e-1 1.534995981900000e-1
1.558194475360000e-1 1.581743569150000e-1 1.605648561910000e-1 1.629914832380000e-1
1.654547840560000e-1 1.679553128980000e-1 1.704936323950000e-1 1.730703136780000e-1
1.756859365110000e-1 1.783410894220000e-1 1.810363698300000e-1 1.837723841850000e-1
1.865497481020000e-1 1.893690864990000e-1 1.922310337390000e-1 1.951362337730000e-1
1.980853402830000e-1 2.010790168300000e-1 2.041179370050000e-1 2.072027845760000e-1
2.103342536480000e-1 2.135130488140000e-1 2.167398853170000e-1 2.200154892080000e-1
2.233405975130000e-1 2.267159583950000e-1 2.301423313230000e-1 2.336204872480000e-1
2.371512087670000e-1 2.407352903090000e-1 2.443735383060000e-1 2.480667713810000e-1
2.518158205260000e-1 2.556215292930000e-1 2.594847539820000e-1 2.634063638360000e-1
2.673872412330000e-1 2.714282818870000e-1 2.755303950500000e-1 2.796945037140000e-1
2.839215448210000e-1 2.882124694740000e-1 2.925682431480000e-1 2.969898459110000e-1
3.014782726430000e-1 3.060345332570000e-1 3.106596529330000e-1 3.153546723410000e-1
3.201206478810000e-1 3.249586519180000e-1 3.298697730210000e-1 3.348551162160000e-1
3.399158032240000e-1 3.450529727220000e-1 3.502677805950000e-1 3.555614001960000e-1
3.609350226120000e-1 3.663898569310000e-1 3.719271305130000e-1 3.775480892690000e-1
3.832539979370000e-1 3.890461403720000e-1 3.949258198300000e-1 4.008943592640001e-1
4.069531016190000e-1 4.131034101400000e-1 4.193466686700000e-1 4.256842819700000e-1
4.321176760289999e-1 4.386482983890000e-1 4.452776184660000e-1 4.520071278860000e-1
4.588383408160000e-1 4.657727943090000e-1 4.728120486460000e-1 4.799576876880000e-1
4.872113192350000e-1 4.945745753840000e-1 5.020491128990000e-1 5.096366135830000e-1
5.173387846540000e-1 5.251573591350000e-1 5.330940962370000e-1 5.411507817600000e-1
5.493292284910000e-1 5.576312766170000e-1 5.660587941320000e-1 5.746136772640000e-1
5.832978508980000e-1 5.921132690089999e-1 6.010619151030000e-1 6.101458026640000e-1
6.193669756049999e-1 6.287275087279999e-1 6.382295081930000e-1 6.478751119900000e-1
6.576664904200000e-1 6.676058465850000e-1 6.776954168830000e-1 6.879374715080000e-1
6.983343149660000e-1 7.088882865920000e-1 7.196017610720000e-1 7.304771489850000e-1
7.415168973380000e-1 7.527234901210001e-1 7.640994488650001e-1 7.756473332090001e-1
7.873697414740000e-1 7.992693112540000e-1 8.113487200000000e-1 8.236106856310000e-1
8.360579671410001e-1 8.486933652210000e-1 8.615197228890001e-1 8.745399261290000e-1
8.877569045410000e-1 9.011736320030000e-1 9.147931273330000e-1 9.286184549760000e-1
9.426527256900000e-1 9.568990972430001e-1 9.713607751310001e-1 9.860410132910001e-1
1.000943114840000e0 1.016070432810000e0 1.031426370910000e0 1.047014384300000e0
1.062837980350000e0 1.078900719420000e0 1.095206215710000e0 1.111758138010000e0
1.128560210590000e0 1.145616213980000e0 1.162929985840000e0 1.180505421860000e0
1.198346476580000e0 1.216457164310000e0 1.234841560040000e0 1.253503800330000e0
1.272448084260000e0 1.291678674380000e0 1.311199897640000e0 1.331016146420000e0
1.351131879450000e0 1.371551622850000e0 1.392279971150000e0 1.413321588310000e0
1.434681208800000e0 1.456363638610000e0 1.478373756380000e0 1.500716514490000e0
1.523396940140000e0 1.546420136540000e0 1.569791283980000e0 1.593515641090000e0
1.617598545940000e0 1.642045417290000e0 1.666861755780000e0 1.692053145200000e0
1.717625253720000e0 1.743583835160000e0 1.769934730330000e0 1.796683868270000e0
1.823837267670000e0 1.851401038140000e0 1.879381381660000e0 1.907784593920000e0
1.936617065760000e0 1.965885284610000e0 1.995595835950000e0 2.025755404760000e0
2.056370777090000e0 2.087448841520000e0 2.118996590740000e0 2.151021123140000e0
2.183529644360000e0 2.216529468970000e0 2.250028022050000e0 2.284032840940000e0
2.318551576850000e0 2.353591996640000e0 2.389161984570000e0 2.425269544020000e0
2.461922799350000e0 2.499129997690000e0 2.536899510830000e0 2.575239837060000e0
2.614159603120000e0 2.653667566120000e0 2.693772615510000e0 2.734483775110000e0
2.775810205100000e0 2.817761204090000e0 2.860346211230000e0 2.903574808350000e0
2.947456722040000e0 2.992001825940000e0 3.037220142860000e0 3.083121847130000e0
3.129717266830000e0 3.177016886110000e0 3.225031347590000e0 3.273771454740000e0
3.323248174270000e0 3.373472638660000e0 3.424456148630000e0 3.476210175680000e0
3.528746364680000e0 3.582076536500000e0 3.636212690660000e0 3.691167008010000e0
3.746951853510000e0 3.803579778980000e0 3.861063525950000e0 3.919416028510000e0
3.978650416200000e0 4.038780017020000e0 4.099818360390000e0 4.161779180180000e0
4.224676417850000e0 4.288524225530000e0 4.353336969260000e0 4.419129232170000e0
4.485915817800000e0 4.553711753420000e0 4.622532293390000e0 4.692392922620000e0
4.763309360070000e0 4.835297562210000e0 4.908373726700000e0 4.982554295990000e0
5.057855961020000e0 5.134295664980000e0 5.211890607120000e0 5.290658246630000e0
5.370616306570000e0 5.451782777840000e0 5.534175923230000e0 5.617814281560000e0
5.702716671790000e0 5.788902197340000e0 5.876390250300000e0 5.965200515860000e0
6.055352976700000e0 6.146867917510000e0 6.239765929530000e0 6.334067915210000e0
6.429795092890000e0 6.526969001600000e0 6.625611505870000e0 6.725744800670000e0
6.827391416430000e0 6.930574224070000e0 7.035316440140000e0 7.141641632090000e0
7.249573723540000e0 7.359136999660000e0 7.470356112650000e0 7.583256087280000e0
7.697862326530000e0 7.814200617270000e0 7.932297136120000e0 8.052178455290001e0
8.173871548579999e0 8.297403797459999e0 8.422802997190001e0 8.550097363130000e0
8.679315537050000e0 8.810486593580000e0 8.943640046770000e0 9.078805856700001e0
9.216014436240000e0 9.355296657920000e0 9.496683860810000e0 9.640207857629999e0
9.785900941890000e0 9.933795895150000e0 1.008392599440000e1 1.023632501950000e1
1.039102726100000e1 1.054806752740000e1 1.070748115350000e1 1.086930400800000e1
1.103357250180000e1 1.120032359600000e1 1.136959481020000e1 1.154142423130000e1
1.171585052140000e1 1.189291292740000e1 1.207265128890000e1 1.225510604790000e1
1.244031825750000e1 1.262832959120000e1 1.281918235230000e1 1.301291948350000e1
1.320958457650000e1 1.340922188170000e1 1.361187631850000e1 1.381759348480000e1
1.402641966800000e1 1.423840185480000e1 1.445358774200000e1 1.467202574750000e1
1.489376502060000e1 1.511885545380000e1 1.534734769320000e1 1.557929315050000e1
1.581474401460000e1 1.605375326280000e1 1.629637467310000e1 1.654266283660000e1
1.679267316890000e1 1.704646192360000e1 1.730408620410000e1 1.756560397710000e1
1.783107408500000e1 1.810055625980000e1 1.837411113610000e1 1.865180026500000e1
1.893368612760000e1 1.921983214940000e1 1.951030271460000e1 1.980516318020000e1
2.010447989110000e1 2.040832019480000e1 2.071675245660000e1 2.102984607510000e1
2.134767149760000e1 2.167030023640000e1 2.199780488410000e1 2.233025913070000e1
2.266773777980000e1 2.301031676560000e1 2.335807316970000e1 2.371108523880000e1
2.406943240210000e1 2.443319528930000e1 2.480245574850001e1 2.517729686480000e1
2.555780297920000e1 2.594405970710000e1 2.633615395780000e1 2.673417395430000e1
2.713820925270000e1 2.754835076270000e1 2.796469076780000e1 2.838732294640000e1
2.881634239230000e1 2.925184563690000e1 2.969393067010000e1 3.014269696310000e1
3.059824548990000e1 3.106067875120000e1 3.153010079610000e1 3.200661724680000e1
3.249033532140000e1 3.298136385850000e1 3.347981334160000e1 3.398579592400000e1
3.449942545380000e1 3.502081749990000e1 3.555008937760000e1 3.608736017550001e1
3.663275078160000e1 3.718638391120000e1 3.774838413410000e1 3.831887790270001e1
3.889799358040000e1 3.948586147080000e1 4.008261384660000e1 4.068838497970000e1
4.130331117100000e1 4.192753078160000e1 4.256118426340000e1 4.320441419130001e1
4.385736529470001e1 4.452018449030000e1 4.519302091520000e1 4.587602596040000e1
4.656935330510001e1 4.727315895070000e1 4.798760125650000e1 4.871284097500000e1
4.944904128830000e1 5.019636784450000e1 5.095498879520001e1 5.172507483340000e1
5.250679923160000e1 5.330033788110001e1 5.410586933160000e1 5.492357483090000e1
5.575363836620000e1 5.659624670540000e1 5.745158943890001e1 5.831985902230000e1
5.920125082010000e1 6.009596314910000e1 6.100419732330000e1 6.192615769930001e1
6.286205172200000e1 6.381208997150001e1 6.477648621050000e1 6.575545743220001e1
6.674922390920000e1 6.775800924319999e1 6.878204041510000e1 6.982154783630000e1
7.087676540040000e1 7.194793053560000e1 7.303528425880001e1 7.413907122900000e1
7.525953980300000e1 7.639694209100000e1 7.755153401330000e1 7.872357535790001e1
7.991332983900000e1 8.112106515650000e1 8.234705305600000e1 8.359156938970001e1
8.485489417920000e1 8.613731167790000e1 8.743911043510002e1 8.876058336110001e1
9.010202779270001e1 9.146374556080001e1 9.284604305740000e1 9.424923130550001e1
9.567362602820001e1 9.711954772040002e1 9.858732172050001e1
</PP_R>
<PP_RAB>
2.655805903570000e-6 2.695943269800001e-6 2.736687234640000e-6 2.778046965650000e-6
2.820031768940000e-6 2.862651091290001e-6 2.905914522200001e-6 2.949831796140001e-6
2.994412794680001e-6 3.039667548730000e-6 3.085606240810001e-6 3.132239207300000e-6
3.179576940840000e-6 3.227630092590000e-6 3.276409474739999e-6 3.325926062840000e-6
3.376190998330000e-6 3.427215591049999e-6 3.479011321730000e-6 3.531589844630000e-6
3.584962990150000e-6 3.639142767460001e-6 3.694141367250000e-6 3.749971164440000e-6
3.806644720950000e-6 3.864174788590000e-6 3.922574311850000e-6 3.981856430890001e-6
4.042034484420000e-6 4.103122012760001e-6 4.165132760870000e-6 4.228080681420000e-6
4.291979937950000e-6 4.356844908090000e-6 4.422690186700001e-6 4.489530589269999e-6
4.557381155160001e-6 4.626257151040000e-6 4.696174074290001e-6 4.767147656520000e-6
4.839193867080000e-6 4.912328916690001e-6 4.986569261020000e-6 5.061931604469999e-6
5.138432903890000e-6 5.216090372390001e-6 5.294921483230000e-6 5.374943973740000e-6
5.456175849319999e-6 5.538635387489999e-6 5.622341141980001e-6 5.707311946950001e-6
5.793566921189999e-6 5.881125472420000e-6 5.970007301699999e-6 6.060232407810000e-6
6.151821091770000e-6 6.244793961440001e-6 6.339171936089999e-6 6.434976251169999e-6
6.532228463050000e-6 6.630950453899999e-6 6.731164436570002e-6 6.832892959640001e-6
6.936158912449999e-6 7.040985530280000e-6 7.147396399560000e-6 7.255415463179999e-6
7.365067025889999e-6 7.476375759749999e-6 7.589366709699998e-6 7.704065299170000e-6
7.820497335839999e-6 7.938689017410000e-6 8.058666937489999e-6 8.180458091639998e-6
8.304089883360000e-6 8.429590130339998e-6 8.556987070670001e-6 8.686309369179998e-6
8.817586123949999e-6 8.950846872799998e-6 9.086121599949998e-6 9.223440742799999e-6
9.362835198719999e-6 9.504336332069999e-6 9.647975981180000e-6 9.793786465600002e-6
9.941800593280002e-6 1.009205166800000e-5 1.024457349700000e-5 1.039940039820000e-5
1.055656720840000e-5 1.071610929080000e-5 1.087806254290000e-5 1.104246340500000e-5
1.120934886800000e-5 1.137875648170000e-5 1.155072436370000e-5 1.172529120730000e-5
1.190249629100000e-5 1.208237948650000e-5 1.226498126840000e-5 1.245034272280000e-5
1.263850555690000e-5 1.282951210800000e-5 1.302340535350000e-5 1.322022892010000e-5
1.342002709400000e-5 1.362284483060000e-5 1.382872776480000e-5 1.403772222110000e-5
1.424987522400000e-5 1.446523450910000e-5 1.468384853290000e-5 1.490576648460000e-5
1.513103829660000e-5 1.535971465610000e-5 1.559184701620000e-5 1.582748760760000e-5
1.606668945050000e-5 1.630950636630000e-5 1.655599298990000e-5 1.680620478170000e-5
1.706019804050000e-5 1.731802991590000e-5 1.757975842100000e-5 1.784544244600000e-5
1.811514177080000e-5 1.838891707890000e-5 1.866682997090000e-5 1.894894297840000e-5
1.923531957800000e-5 1.952602420570000e-5 1.982112227120000e-5 2.012068017290000e-5
2.042476531240000e-5 2.073344611040000e-5 2.104679202110000e-5 2.136487354889999e-5
2.168776226340000e-5 2.201553081580000e-5 2.234825295560000e-5 2.268600354660000e-5
2.302885858400000e-5 2.337689521180000e-5 2.373019173970000e-5 2.408882766080000e-5
2.445288366970000e-5 2.482244168070000e-5 2.519758484570000e-5 2.557839757370000e-5
2.596496554900000e-5 2.635737575100000e-5 2.675571647390000e-5 2.716007734580000e-5
2.757054934970000e-5 2.798722484350000e-5 2.841019758100000e-5 2.883956273270000e-5
2.927541690780000e-5 2.971785817520000e-5 3.016698608600000e-5 3.062290169599999e-5
3.108570758810001e-5 3.155550789550000e-5 3.203240832529999e-5 3.251651618209999e-5
3.300794039220000e-5 3.350679152820001e-5 3.401318183360000e-5 3.452722524850000e-5
3.504903743470000e-5 3.557873580210000e-5 3.611643953530000e-5 3.666226961960000e-5
3.721634886940000e-5 3.777880195460001e-5 3.834975542960000e-5 3.892933776140000e-5
3.951767935850000e-5 4.011491260010000e-5 4.072117186630000e-5 4.133659356790001e-5
4.196131617750000e-5 4.259548026020000e-5 4.323922850570000e-5 4.389270576010000e-5
4.455605905840000e-5 4.522943765800000e-5 4.591299307180000e-5 4.660687910280000e-5
4.731125187820000e-5 4.802626988489999e-5 4.875209400500000e-5 4.948888755180000e-5
5.023681630710000e-5 5.099604855810000e-5 5.176675513509999e-5 5.254910945040000e-5
5.334328753700000e-5 5.414946808840000e-5 5.496783249850000e-5 5.579856490279999e-5
5.664185221970000e-5 5.749788419220002e-5 5.836685343129999e-5 5.924895545860000e-5
6.014438875090001e-5 6.105335478430001e-5 6.197605808019999e-5 6.291270625060001e-5
6.386351004530000e-5 6.482868339920000e-5 6.580844348040000e-5 6.680301073889999e-5
6.781260895680001e-5 6.883746529770001e-5 6.987781035870000e-5 7.093387822190000e-5
7.200590650690000e-5 7.309413642460001e-5 7.419881283140000e-5 7.532018428420001e-5
7.645850309610001e-5 7.761402539380001e-5 7.878701117470000e-5 7.997772436550001e-5
8.118643288159999e-5 8.241340868769999e-5 8.365892785840000e-5 8.492327064080001e-5
8.620672151739999e-5 8.750956927000001e-5 8.883210704480003e-5 9.017463241850001e-5
9.153744746500001e-5 9.292085882329999e-5 9.432517776679999e-5 9.575072027330000e-5
9.719780709580000e-5 9.866676383490002e-5 1.001579210120000e-4 1.016716141440000e-4
1.032081838180000e-4 1.047679757690000e-4 1.063513409570000e-4 1.079586356450000e-4
1.095902214810000e-4 1.112464655790000e-4 1.129277406020000e-4 1.146344248430000e-4
1.163669023120000e-4 1.181255628260000e-4 1.199108020900000e-4 1.217230217900000e-4
1.235626296840000e-4 1.254300396900000e-4 1.273256719850000e-4 1.292499530930000e-4
1.312033159850000e-4 1.331862001780000e-4 1.351990518270000e-4 1.372423238330000e-4
1.393164759410000e-4 1.414219748440000e-4 1.435592942880000e-4 1.457289151790000e-4
1.479313256900000e-4 1.501670213740000e-4 1.524365052710000e-4 1.547402880250000e-4
1.570788879970000e-4 1.594528313810000e-4 1.618626523250000e-4 1.643088930480000e-4
1.667921039660000e-4 1.693128438100000e-4 1.718716797590000e-4 1.744691875610000e-4
1.771059516660000e-4 1.797825653570000e-4 1.824996308840000e-4 1.852577595980000e-4
1.880575720900000e-4 1.908996983280000e-4 1.937847778040000e-4 1.967134596730000e-4
1.996864028990000e-4 2.027042764090000e-4 2.057677592370000e-4 2.088775406780000e-4
2.120343204470000e-4 2.152388088320000e-4 2.184917268580000e-4 2.217938064440000e-4
2.251457905720000e-4 2.285484334530000e-4 2.320025006960000e-4 2.355087694800000e-4
2.390680287300000e-4 2.426810792960000e-4 2.463487341290000e-4 2.500718184660000e-4
2.538511700170000e-4 2.576876391519999e-4 2.615820890930001e-4 2.655353961080000e-4
2.695484497070000e-4 2.736221528440000e-4 2.777574221210000e-4 2.819551879890000e-4
2.862163949630000e-4 2.905420018350000e-4 2.949329818820000e-4 2.993903230939999e-4
3.039150283930000e-4 3.085081158540000e-4 3.131706189440000e-4 3.179035867440000e-4
3.227080841920000e-4 3.275851923200000e-4 3.325360084990000e-4 3.375616466820000e-4
3.426632376600000e-4 3.478419293130000e-4 3.530988868660000e-4 3.584352931590000e-4
3.638523489050000e-4 3.693512729650000e-4 3.749333026190000e-4 3.805996938480000e-4
3.863517216140000e-4 3.921906801470000e-4 3.981178832380000e-4 4.041346645320000e-4
4.102423778300000e-4 4.164423973950000e-4 4.227361182550000e-4 4.291249565259999e-4
4.356103497220001e-4 4.421937570850000e-4 4.488766599080000e-4 4.556605618740001e-4
4.625469893879999e-4 4.695374919270000e-4 4.766336423819999e-4 4.838370374169999e-4
4.911492978269999e-4 4.985720689010000e-4 5.061070207939999e-4 5.137558489020000e-4
5.215202742430001e-4 5.294020438460000e-4 5.374029311420000e-4 5.455247363650001e-4
5.537692869550000e-4 5.621384379709999e-4 5.706340725070000e-4 5.792581021170000e-4
5.880124672440000e-4 5.968991376560000e-4 6.059201128920000e-4 6.150774227099999e-4
6.243731275440000e-4 6.338093189639999e-4 6.433881201560000e-4 6.531116863889999e-4
6.629822055069999e-4 6.730018984170000e-4 6.831730195950001e-4 6.934978575840000e-4
7.039787355159999e-4 7.146180116340000e-4 7.254180798189999e-4 7.363813701330001e-4
7.475103493620000e-4 7.588075215730000e-4 7.702754286769999e-4 7.819166510030000e-4
7.937338078730000e-4 8.057295581990001e-4 8.179066010750001e-4 8.302676763870000e-4
8.428155654279999e-4 8.555530915279999e-4 8.684831206819998e-4 8.816085622030000e-4
8.949323693690001e-4 9.084575400940000e-4 9.221871175980001e-4 9.361241910939999e-4
9.502718964829999e-4 9.646334170570000e-4 9.792119842190001e-4 9.940108782090000e-4
1.009033428840000e-3 1.024283016250000e-3 1.039763071660000e-3 1.055477078150000e-3
1.071428571430000e-3 1.087621140660000e-3 1.104058429240000e-3 1.120744135620000e-3
1.137682014160000e-3 1.154875875950000e-3 1.172329589680000e-3 1.190047082520000e-3
1.208032340980000e-3 1.226289411800000e-3 1.244822402920000e-3 1.263635484330000e-3
1.282732889060000e-3 1.302118914100000e-3 1.321797921380000e-3 1.341774338780000e-3
1.362052661060000e-3 1.382637450940000e-3 1.403533340070000e-3 1.424745030130000e-3
1.446277293830000e-3 1.468134976030000e-3 1.490322994780000e-3 1.512846342500000e-3
1.535710087030000e-3 1.558919372810000e-3 1.582479422020000e-3 1.606395535780000e-3
1.630673095310000e-3 1.655317563160000e-3 1.680334484450000e-3 1.705729488090000e-3
1.731508288060000e-3 1.757676684700000e-3 1.784240566010000e-3 1.811205908980000e-3
1.838578780910000e-3 1.866365340830000e-3 1.894571840820000e-3 1.923204627470000e-3
1.952270143280000e-3 1.981774928100000e-3 2.011725620640000e-3 2.042128959930000e-3
2.072991786860000e-3 2.104321045680000e-3 2.136123785620000e-3 2.168407162420000e-3
2.201178439980000e-3 2.234444991970000e-3 2.268214303510000e-3 2.302493972840000e-3
2.337291713030000e-3 2.372615353720000e-3 2.408472842870000e-3 2.444872248570000e-3
2.481821760840000e-3 2.519329693470000e-3 2.557404485920000e-3 2.596054705160000e-3
2.635289047670000e-3 2.675116341330000e-3 2.715545547450000e-3 2.756585762770000e-3
2.798246221520000e-3 2.840536297480000e-3 2.883465506090000e-3 2.927043506600000e-3
2.971280104250000e-3 3.016185252450000e-3 3.061769055070000e-3 3.108041768640000e-3
3.155013804709999e-3 3.202695732210000e-3 3.251098279750000e-3 3.300232338130000e-3
3.350108962700000e-3 3.400739375920000e-3 3.452134969850000e-3 3.504307308710000e-3
3.557268131500000e-3 3.611029354630000e-3 3.665603074600000e-3 3.721001570720000e-3
3.777237307890000e-3 3.834322939390000e-3 3.892271309740000e-3 3.951095457540000e-3
4.010808618490000e-3 4.071424228310000e-3 4.132955925749999e-3 4.195417555710000e-3