<PP_INFO>
Generated using Vanderbilt code, version   7  3  5                              
Author: unknown    Generation date:    9    6 2004                              
Automatically converted from original format                                    
    1        The Pseudo was generated with a Scalar-Relativistic Calculation
  2.00000000000E+00    Local Potential cutoff radius
nl pn  l   occ               Rcut            Rcut US             E pseu
3D  3  2 10.00     10.00000000000      2.00000000000     -0.74532881798
4S  4  0  2.00     10.00000000000      2.00000000000     -0.43943081956
</PP_INFO>


<PP_HEADER>
   0                   Version Number
  Zn                   Element
   US                  Ultrasoft pseudopotential
    F                  Nonlinear Core Correction
 SLA  PW   PBE  PBE    PBE  Exchange-Correlation functional
   12.00000000000      Z valence
 -126.50169703685      Total energy
  0.0000000  0.0000000 Suggested cutoff for wfc and rho
    2                  Max angular momentum component
  869                  Number of points in mesh
    2    6             Number of Wavefunctions, Number of Projectors
 Wavefunctions         nl  l   occ
                       3D  2 10.00
                       4S  0  2.00
</PP_HEADER>


<PP_MESH>
  <PP_R>
  0.00000000000E+00  1.41236030267E-06  2.84886293360E-06  4.30992057220E-06
  5.79595295206E-06  7.30738698153E-06  8.84465686636E-06  1.04082042344E-05
  1.19984782627E-05  1.36159358060E-05  1.52610415287E-05  1.69342680377E-05
  1.86360960188E-05  2.03670143741E-05  2.21275203630E-05  2.39181197449E-05
  2.57393269241E-05  2.75916650984E-05  2.94756664086E-05  3.13918720919E-05
  3.33408326370E-05  3.53231079427E-05  3.73392674782E-05  3.93898904473E-05
  4.14755659541E-05  4.35968931729E-05  4.57544815199E-05  4.79489508286E-05
  5.01809315274E-05  5.24510648214E-05  5.47600028757E-05  5.71084090038E-05
  5.94969578571E-05  6.19263356196E-05  6.43972402044E-05  6.69103814547E-05
  6.94664813473E-05  7.20662742002E-05  7.47105068837E-05  7.73999390345E-05
  8.01353432746E-05  8.29175054325E-05  8.57472247698E-05  8.86253142099E-05
  9.15526005723E-05  9.45299248097E-05  9.75581422497E-05  1.00638122841E-04
  1.03770751401E-04  1.06956927875E-04  1.10197567590E-04  1.13493601517E-04
  1.16845976544E-04  1.20255655744E-04  1.23723618651E-04  1.27250861545E-04
  1.30838397732E-04  1.34487257844E-04  1.38198490128E-04  1.41973160747E-04
  1.45812354093E-04  1.49717173091E-04  1.53688739521E-04  1.57728194335E-04
  1.61836697993E-04  1.66015430786E-04  1.70265593185E-04  1.74588406178E-04
  1.78985111626E-04  1.83456972618E-04  1.88005273833E-04  1.92631321909E-04
  1.97336445820E-04  2.02121997259E-04  2.06989351021E-04  2.11939905402E-04
  2.16975082601E-04  2.22096329128E-04  2.27305116216E-04  2.32602940250E-04
  2.37991323193E-04  2.43471813021E-04  2.49045984175E-04  2.54715438005E-04
  2.60481803236E-04  2.66346736433E-04  2.72311922478E-04  2.78379075053E-04
  2.84549937135E-04  2.90826281491E-04  2.97209911194E-04  3.03702660139E-04
  3.10306393565E-04  3.17023008598E-04  3.23854434791E-04  3.30802634681E-04
  3.37869604351E-04  3.45057374004E-04  3.52368008549E-04  3.59803608188E-04
  3.67366309026E-04  3.75058283680E-04  3.82881741906E-04  3.90838931231E-04
  3.98932137603E-04  4.07163686043E-04  4.15535941315E-04  4.24051308607E-04
  4.32712234219E-04  4.41521206266E-04  4.50480755397E-04  4.59593455516E-04
  4.68861924526E-04  4.78288825079E-04  4.87876865340E-04  4.97628799768E-04
  5.07547429905E-04  5.17635605182E-04  5.27896223736E-04  5.38332233244E-04
  5.48946631770E-04  5.59742468626E-04  5.70722845245E-04  5.81890916079E-04
  5.93249889497E-04  6.04803028713E-04  6.16553652720E-04  6.28505137245E-04
  6.40660915719E-04  6.53024480261E-04  6.65599382684E-04  6.78389235514E-04
  6.91397713028E-04  7.04628552311E-04  7.18085554327E-04  7.31772585010E-04
  7.45693576382E-04  7.59852527673E-04  7.74253506476E-04  7.88900649913E-04
  8.03798165825E-04  8.18950333981E-04  8.34361507305E-04  8.50036113129E-04
  8.65978654464E-04  8.82193711293E-04  8.98685941888E-04  9.15460084149E-04
  9.32520956962E-04  9.49873461585E-04  9.67522583057E-04  9.85473391630E-04
  1.00373104422E-03  1.02230078591E-03  1.04118795141E-03  1.06039796664E-03
  1.07993635028E-03  1.09980871532E-03  1.12002077070E-03  1.14057832296E-03
  1.16148727789E-03  1.18275364222E-03  1.20438352537E-03  1.22638314118E-03
  1.24875880973E-03  1.27151695910E-03  1.29466412727E-03  1.31820696398E-03
  1.34215223262E-03  1.36650681221E-03  1.39127769936E-03  1.41647201024E-03
  1.44209698271E-03  1.46815997833E-03  1.49466848447E-03  1.52163011654E-03
  1.54905262008E-03  1.57694387304E-03  1.60531188805E-03  1.63416481468E-03
  1.66351094183E-03  1.69335870006E-03  1.72371666407E-03  1.75459355510E-03
  1.78599824349E-03  1.81793975121E-03  1.85042725441E-03  1.88347008615E-03
  1.91707773898E-03  1.95125986773E-03  1.98602629227E-03  2.02138700031E-03
  2.05735215031E-03  2.09393207435E-03  2.13113728115E-03  2.16897845903E-03
  2.20746647903E-03  2.24661239802E-03  2.28642746187E-03  2.32692310866E-03
  2.36811097202E-03  2.41000288442E-03  2.45261088060E-03  2.49594720101E-03
  2.54002429534E-03  2.58485482607E-03  2.63045167217E-03  2.67682793271E-03
  2.72399693071E-03  2.77197221690E-03  2.82076757364E-03  2.87039701892E-03
  2.92087481029E-03  2.97221544906E-03  3.02443368441E-03  3.07754451760E-03
  3.13156320637E-03  3.18650526923E-03  3.24238648998E-03  3.29922292221E-03
  3.35703089393E-03  3.41582701225E-03  3.47562816815E-03  3.53645154135E-03
  3.59831460524E-03  3.66123513186E-03  3.72523119707E-03  3.79032118571E-03
  3.85652379685E-03  3.92385804925E-03  3.99234328671E-03  4.06199918373E-03
  4.13284575110E-03  4.20490334166E-03  4.27819265617E-03  4.35273474923E-03
  4.42855103533E-03  4.50566329504E-03  4.58409368120E-03  4.66386472536E-03
  4.74499934419E-03  4.82752084610E-03  4.91145293791E-03  4.99681973170E-03
  5.08364575169E-03  5.17195594131E-03  5.26177567038E-03  5.35313074236E-03
  5.44604740180E-03  5.54055234186E-03  5.63667271197E-03  5.73443612567E-03
  5.83387066849E-03  5.93500490604E-03  6.03786789224E-03  6.14248917763E-03
  6.24889881788E-03  6.35712738242E-03  6.46720596324E-03  6.57916618376E-03
  6.69304020800E-03  6.80886074976E-03  6.92666108204E-03  7.04647504660E-03
  7.16833706367E-03  7.29228214185E-03  7.41834588816E-03  7.54656451827E-03
  7.67697486693E-03  7.80961439849E-03  7.94452121773E-03  8.08173408077E-03
  8.22129240621E-03  8.36323628645E-03  8.50760649922E-03  8.65444451929E-03
  8.80379253039E-03  8.95569343731E-03  9.11019087824E-03  9.26732923730E-03
  9.42715365730E-03  9.58971005271E-03  9.75504512284E-03  9.92320636524E-03
  1.00942420894E-02  1.02682014306E-02  1.04451343639E-02  1.06250917188E-02
  1.08081251935E-02  1.09942873700E-02  1.11836317291E-02  1.13762126658E-02
  1.15720855048E-02  1.17713065167E-02  1.19739329337E-02  1.21800229665E-02
  1.23896358208E-02  1.26028317143E-02  1.28196718941E-02  1.30402186541E-02
  1.32645353532E-02  1.34926864332E-02  1.37247374375E-02  1.39607550299E-02
  1.42008070136E-02  1.44449623510E-02  1.46932911831E-02  1.49458648500E-02
  1.52027559112E-02  1.54640381667E-02  1.57297866776E-02  1.60000777885E-02
  1.62749891486E-02  1.65545997348E-02  1.68389898738E-02  1.71282412653E-02
  1.74224370056E-02  1.77216616115E-02  1.80260010445E-02  1.83355427353E-02
  1.86503756093E-02  1.89705901120E-02  1.92962782346E-02  1.96275335412E-02
  1.99644511949E-02  2.03071279857E-02  2.06556623581E-02  2.10101544391E-02
  2.13707060674E-02  2.17374208227E-02  2.21104040549E-02  2.24897629150E-02
  2.28756063853E-02  2.32680453113E-02  2.36671924330E-02  2.40731624176E-02
  2.44860718926E-02  2.49060394789E-02  2.53331858248E-02  2.57676336415E-02
  2.62095077372E-02  2.66589350540E-02  2.71160447034E-02  2.75809680044E-02
  2.80538385204E-02  2.85347920979E-02  2.90239669056E-02  2.95215034739E-02
  3.00275447354E-02  3.05422360661E-02  3.10657253268E-02  3.15981629059E-02
  3.21397017622E-02  3.26904974695E-02  3.32507082608E-02  3.38204950737E-02
  3.44000215969E-02  3.49894543173E-02  3.55889625674E-02  3.61987185743E-02
  3.68188975092E-02  3.74496775375E-02  3.80912398700E-02  3.87437688153E-02
  3.94074518321E-02  4.00824795839E-02  4.07690459931E-02  4.14673482968E-02
  4.21775871038E-02  4.28999664521E-02  4.36346938671E-02  4.43819804219E-02
  4.51420407974E-02  4.59150933443E-02  4.67013601456E-02  4.75010670805E-02
  4.83144438894E-02  4.91417242397E-02  4.99831457931E-02  5.08389502735E-02
  5.17093835372E-02  5.25946956428E-02  5.34951409232E-02  5.44109780591E-02
  5.53424701526E-02  5.62898848035E-02  5.72534941855E-02  5.82335751252E-02
  5.92304091807E-02  6.02442827232E-02  6.12754870189E-02  6.23243183129E-02
  6.33910779141E-02  6.44760722819E-02  6.55796131142E-02  6.67020174369E-02
  6.78436076950E-02  6.90047118454E-02  7.01856634508E-02  7.13868017757E-02
  7.26084718840E-02  7.38510247378E-02  7.51148172985E-02  7.64002126292E-02
  7.77075799993E-02  7.90372949899E-02  8.03897396025E-02  8.17653023683E-02
  8.31643784599E-02  8.45873698046E-02  8.60346852004E-02  8.75067404331E-02
  8.90039583955E-02  9.05267692094E-02  9.20756103490E-02  9.36509267662E-02
  9.52531710191E-02  9.68828034013E-02  9.85402920748E-02  1.00226113204E-01
  1.01940751093E-01  1.03684698323E-01  1.05458455897E-01  1.07262533382E-01
  1.09097449053E-01  1.10963730047E-01  1.12861912510E-01  1.14792541753E-01
  1.16756172409E-01  1.18753368590E-01  1.20784704053E-01  1.22850762360E-01
  1.24952137051E-01  1.27089431809E-01  1.29263260638E-01  1.31474248037E-01
  1.33723029181E-01  1.36010250099E-01  1.38336567867E-01  1.40702650791E-01
  1.43109178600E-01  1.45556842643E-01  1.48046346087E-01  1.50578404119E-01
  1.53153744148E-01  1.55773106021E-01  1.58437242230E-01  1.61146918129E-01
  1.63902912156E-01  1.66706016054E-01  1.69557035102E-01  1.72456788341E-01
  1.75406108815E-01  1.78405843806E-01  1.81456855081E-01  1.84560019135E-01
  1.87716227448E-01  1.90926386737E-01  1.94191419219E-01  1.97512262875E-01
  2.00889871719E-01  2.04325216071E-01  2.07819282841E-01  2.11373075806E-01
  2.14987615902E-01  2.18663941517E-01  2.22403108787E-01  2.26206191903E-01
  2.30074283418E-01  2.34008494558E-01  2.38009955548E-01  2.42079815928E-01
  2.46219244892E-01  2.50429431617E-01  2.54711585608E-01  2.59066937045E-01
  2.63496737137E-01  2.68002258479E-01  2.72584795420E-01  2.77245664435E-01
  2.81986204501E-01  2.86807777484E-01  2.91711768527E-01  2.96699586454E-01
  3.01772664166E-01  3.06932459063E-01  3.12180453451E-01  3.17518154980E-01
  3.22947097067E-01  3.28468839343E-01  3.34084968096E-01  3.39797096732E-01
  3.45606866236E-01  3.51515945641E-01  3.57526032511E-01  3.63638853429E-01
  3.69856164490E-01  3.76179751806E-01  3.82611432021E-01  3.89153052834E-01
  3.95806493526E-01  4.02573665500E-01  4.09456512835E-01  4.16457012839E-01
  4.23577176621E-01  4.30819049665E-01  4.38184712423E-01  4.45676280905E-01
  4.53295907296E-01  4.61045780565E-01  4.68928127103E-01  4.76945211353E-01
  4.85099336470E-01  4.93392844977E-01  5.01828119436E-01  5.10407583140E-01
  5.19133700802E-01  5.28008979268E-01  5.37035968232E-01  5.46217260975E-01
  5.55555495103E-01  5.65053353311E-01  5.74713564150E-01  5.84538902812E-01
  5.94532191925E-01  6.04696302369E-01  6.15034154096E-01  6.25548716971E-01
  6.36243011624E-01  6.47120110318E-01  6.58183137835E-01  6.69435272367E-01
  6.80879746436E-01  6.92519847816E-01  7.04358920485E-01  7.16400365578E-01
  7.28647642370E-01  7.41104269266E-01  7.53773824814E-01  7.66659948732E-01
  7.79766342955E-01  7.93096772696E-01  8.06655067529E-01  8.20445122490E-01
  8.34470899195E-01  8.48736426978E-01  8.63245804049E-01  8.78003198672E-01
  8.93012850361E-01  9.08279071097E-01  9.23806246571E-01  9.39598837440E-01
  9.55661380610E-01  9.71998490537E-01  9.88614860559E-01  1.00551526424E+00
  1.02270455673E+00  1.04018767619E+00  1.05796964517E+00  1.07605557210E+00
  1.09445065271E+00  1.11316017154E+00  1.13218950349E+00  1.15154411532E+00
  1.17122956722E+00  1.19125151445E+00  1.21161570892E+00  1.23232800088E+00
  1.25339434056E+00  1.27482077992E+00  1.29661347435E+00  1.31877868449E+00
  1.34132277795E+00  1.36425223123E+00  1.38757363152E+00  1.41129367859E+00
  1.43541918677E+00  1.45995708683E+00  1.48491442806E+00  1.51029838020E+00
  1.53611623558E+00  1.56237541116E+00  1.58908345070E+00  1.61624802691E+00
  1.64387694363E+00  1.67197813812E+00  1.70055968332E+00  1.72962979014E+00
  1.75919680987E+00  1.78926923654E+00  1.81985570937E+00  1.85096501526E+00
  1.88260609133E+00  1.91478802743E+00  1.94752006881E+00  1.98081161876E+00
  2.01467224130E+00  2.04911166392E+00  2.08413978041E+00  2.11976665366E+00
  2.15600251859E+00  2.19285778506E+00  2.23034304087E+00  2.26846905482E+00
  2.30724677977E+00  2.34668735580E+00  2.38680211344E+00  2.42760257688E+00
  2.46910046729E+00  2.51130770623E+00  2.55423641902E+00  2.59789893823E+00
  2.64230780728E+00  2.68747578396E+00  2.73341584417E+00  2.78014118560E+00
  2.82766523152E+00  2.87600163469E+00  2.92516428121E+00  2.97516729455E+00
  3.02602503963E+00  3.07775212688E+00  3.13036341650E+00  3.18387402269E+00
  3.23829931801E+00  3.29365493779E+00  3.34995678465E+00  3.40722103300E+00
  3.46546413375E+00  3.52470281903E+00  3.58495410696E+00  3.64623530657E+00
  3.70856402276E+00  3.77195816136E+00  3.83643593430E+00  3.90201586477E+00
  3.96871679263E+00  4.03655787977E+00  4.10555861561E+00  4.17573882273E+00
  4.24711866255E+00  4.31971864111E+00  4.39355961498E+00  4.46866279725E+00
  4.54504976360E+00  4.62274245854E+00  4.70176320166E+00  4.78213469411E+00
  4.86388002505E+00  4.94702267835E+00  5.03158653926E+00  5.11759590136E+00
  5.20507547347E+00  5.29405038677E+00  5.38454620205E+00  5.47658891699E+00
  5.57020497368E+00  5.66542126621E+00  5.76226514838E+00  5.86076444156E+00
  5.96094744268E+00  6.06284293240E+00  6.16648018330E+00  6.27188896837E+00
  6.37909956951E+00  6.48814278625E+00  6.59904994461E+00  6.71185290605E+00
  6.82658407668E+00  6.94327641656E+00  7.06196344913E+00  7.18267927088E+00
  7.30545856113E+00  7.43033659200E+00  7.55734923852E+00  7.68653298897E+00
  7.81792495535E+00  7.95156288402E+00  8.08748516657E+00  8.22573085085E+00
  8.36633965217E+00  8.50935196470E+00  8.65480887313E+00  8.80275216441E+00
  8.95322433978E+00  9.10626862699E+00  9.26192899270E+00  9.42025015511E+00
  9.58127759685E+00  9.74505757796E+00  9.91163714929E+00  1.00810641659E+01
  1.02533873009E+01  1.04286560594E+01  1.06069207927E+01  1.07882327129E+01
  1.09726439073E+01  1.11602073536E+01  1.13509769354E+01  1.15450074569E+01
  1.17423546593E+01  1.19430752368E+01  1.21472268524E+01  1.23548681550E+01
  1.25660587958E+01  1.27808594460E+01  1.29993318134E+01  1.32215386611E+01
  1.34475438247E+01  1.36774122312E+01  1.39112099172E+01  1.41490040484E+01
  1.43908629385E+01  1.46368560687E+01  1.48870541081E+01  1.51415289339E+01
  1.54003536517E+01  1.56636026168E+01  1.59313514555E+01  1.62036770870E+01
  1.64806577451E+01  1.67623730010E+01  1.70489037860E+01  1.73403324149E+01
  1.76367426095E+01  1.79382195227E+01  1.82448497630E+01  1.85567214193E+01
  1.88739240863E+01  1.91965488902E+01  1.95246885148E+01  1.98584372284E+01
  2.01978909105E+01  2.05431470795E+01  2.08943049209E+01  2.12514653155E+01
  2.16147308686E+01  2.19842059394E+01  2.23599966708E+01  2.27422110204E+01
  2.31309587908E+01  2.35263516618E+01  2.39285032221E+01  2.43375290021E+01
  2.47535465070E+01  2.51766752505E+01  2.56070367893E+01  2.60447547581E+01
  2.64899549046E+01  2.69427651263E+01  2.74033155069E+01  2.78717383534E+01
  2.83481682347E+01  2.88327420199E+01  2.93255989178E+01  2.98268805164E+01
  3.03367308244E+01  3.08552963119E+01  3.13827259526E+01  3.19191712670E+01
  3.24647863653E+01  3.30197279923E+01  3.35841555719E+01  3.41582312533E+01
  3.47421199572E+01  3.53359894237E+01  3.59400102598E+01  3.65543559892E+01
  3.71792031015E+01  3.78147311030E+01  3.84611225688E+01  3.91185631947E+01
  3.97872418504E+01  4.04673506346E+01  4.11590849293E+01  4.18626434563E+01
  4.25782283345E+01  4.33060451375E+01  4.40463029530E+01  4.47992144427E+01
  4.55649959036E+01  4.63438673298E+01  4.71360524760E+01  4.79417789217E+01
  4.87612781366E+01  4.95947855468E+01  5.04425406029E+01  5.13047868486E+01
  5.21817719904E+01  5.30737479694E+01  5.39809710328E+01  5.49037018084E+01
  5.58422053789E+01  5.67967513580E+01  5.77676139685E+01  5.87550721204E+01
  5.97594094913E+01  6.07809146079E+01  6.18198809288E+01  6.28766069290E+01
  6.39513961853E+01  6.50445574641E+01  6.61564048092E+01  6.72872576330E+01
  6.84374408076E+01  6.96072847583E+01  7.07971255588E+01  7.20073050271E+01
  7.32381708245E+01  7.44900765550E+01  7.57633818667E+01  7.70584525556E+01
  7.83756606706E+01  7.97153846200E+01  8.10780092806E+01  8.24639261080E+01
  8.38735332494E+01  8.53072356576E+01  8.67654452076E+01  8.82485808148E+01
  8.97570685553E+01  9.12913417884E+01  9.28518412812E+01  9.44390153350E+01
  9.60533199141E+01  9.76952187771E+01  9.93651836097E+01  1.01063694160E+02
  1.02791238379E+02  1.04548312554E+02  1.06335421461E+02  1.08153078500E+02
  1.10001805849E+02  1.11882134612E+02  1.13794604972E+02  1.15739766343E+02
  1.17718177533E+02  1.19730406901E+02  1.21777032522E+02  1.23858642352E+02
  1.25975834396E+02  1.28129216884E+02  1.30319408440E+02  1.32547038264E+02
  1.34812746311E+02  1.37117183475E+02  1.39461011777E+02  1.41844904552E+02
  1.44269546647E+02  1.46735634614E+02  1.49243876914E+02  1.51794994116E+02
  1.54389719105E+02  1.57028797297E+02  1.59712986848E+02  1.62443058873E+02
  1.65219797669E+02  1.68044000939E+02  1.70916480023E+02  1.73838060128E+02
  1.76809580568E+02  1.79831895002E+02  1.82905871684E+02  1.86032393707E+02
  1.89212359260E+02  1.92446681887E+02  1.95736290745E+02  1.99082130875E+02
  2.02485163473E+02
  </PP_R>
  <PP_RAB>
  1.40042495857E-06  1.42436326878E-06  1.44871077100E-06  1.47347445979E-06
  1.49866144928E-06  1.52427897520E-06  1.55033439698E-06  1.57683519983E-06
  1.60378899692E-06  1.63120353155E-06  1.65908667939E-06  1.68744645073E-06
  1.71629099279E-06  1.74562859203E-06  1.77546767659E-06  1.80581681865E-06
  1.83668473694E-06  1.86808029922E-06  1.90001252482E-06  1.93249058724E-06
  1.96552381682E-06  1.99912170336E-06  2.03329389888E-06  2.06805022039E-06
  2.10340065271E-06  2.13935535133E-06  2.17592464535E-06  2.21311904041E-06
  2.25094922175E-06  2.28942605724E-06  2.32856060053E-06  2.36836409423E-06
  2.40884797310E-06  2.45002386737E-06  2.49190360610E-06  2.53449922051E-06
  2.57782294751E-06  2.62188723315E-06  2.66670473626E-06  2.71228833204E-06
  2.75865111576E-06  2.80580640658E-06  2.85376775128E-06  2.90254892823E-06
  2.95216395132E-06  3.00262707399E-06  3.05395279331E-06  3.10615585417E-06
  3.15925125351E-06  3.21325424459E-06  3.26818034144E-06  3.32404532326E-06
  3.38086523898E-06  3.43865641186E-06  3.49743544419E-06  3.55721922204E-06
  3.61802492013E-06  3.67987000678E-06  3.74277224887E-06  3.80674971700E-06
  3.87182079066E-06  3.93800416351E-06  4.00531884875E-06  4.07378418459E-06
  4.14341983980E-06  4.21424581935E-06  4.28628247017E-06  4.35955048701E-06
  4.43407091833E-06  4.50986517243E-06  4.58695502353E-06  4.66536261804E-06
  4.74511048095E-06  4.82622152228E-06  4.90871904366E-06  4.99262674504E-06
  5.07796873147E-06  5.16476952005E-06  5.25305404697E-06  5.34284767467E-06
  5.43417619912E-06  5.52706585724E-06  5.62154333442E-06  5.71763577222E-06
  5.81537077613E-06  5.91477642354E-06  6.01588127176E-06  6.11871436625E-06
  6.22330524899E-06  6.32968396689E-06  6.43788108051E-06  6.54792767279E-06
  6.65985535798E-06  6.77369629074E-06  6.88948317536E-06  7.00724927519E-06
  7.12702842214E-06  7.24885502644E-06  7.37276408651E-06  7.49879119904E-06
  7.62697256917E-06  7.75734502094E-06  7.88994600782E-06  8.02481362350E-06
  8.16198661286E-06  8.30150438303E-06  8.44340701476E-06  8.58773527395E-06
  8.73453062329E-06  8.88383523427E-06  9.03569199920E-06  9.19014454359E-06
  9.34723723867E-06  9.50701521414E-06  9.66952437110E-06  9.83481139531E-06
  1.00029237705E-05  1.01739097922E-05  1.03478185812E-05  1.05247000983E-05
  1.07046051581E-05  1.08875854437E-05  1.10736935220E-05  1.12629828582E-05
  1.14555078314E-05  1.16513237503E-05  1.18504868691E-05  1.20530544034E-05
  1.22590845470E-05  1.24686364884E-05  1.26817704278E-05  1.28985475944E-05
  1.31190302641E-05  1.33432817774E-05  1.35713665573E-05  1.38033501282E-05
  1.40392991345E-05  1.42792813598E-05  1.45233657463E-05  1.47716224147E-05
  1.50241226844E-05  1.52809390938E-05  1.55421454214E-05  1.58078167065E-05
  1.60780292715E-05  1.63528607432E-05  1.66323900753E-05  1.69166975713E-05
  1.72058649071E-05  1.74999751549E-05  1.77991128070E-05  1.81033637997E-05
  1.84128155386E-05  1.87275569231E-05  1.90476783722E-05  1.93732718508E-05
  1.97044308955E-05  2.00412506419E-05  2.03838278518E-05  2.07322609409E-05
  2.10866500075E-05  2.14470968606E-05  2.18137050495E-05  2.21865798939E-05
  2.25658285133E-05  2.29515598585E-05  2.33438847428E-05  2.37429158734E-05
  2.41487678843E-05  2.45615573690E-05  2.49814029138E-05  2.54084251322E-05
  2.58427466995E-05  2.62844923878E-05  2.67337891022E-05  2.71907659169E-05
  2.76555541124E-05  2.81282872135E-05  2.86091010272E-05  2.90981336820E-05
  2.95955256675E-05  3.01014198749E-05  3.06159616377E-05  3.11392987739E-05
  3.16715816280E-05  3.22129631146E-05  3.27635987622E-05  3.33236467577E-05
  3.38932679921E-05  3.44726261065E-05  3.50618875394E-05  3.56612215740E-05
  3.62708003875E-05  3.68907991001E-05  3.75213958254E-05  3.81627717217E-05
  3.88151110438E-05  3.94786011962E-05  4.01534327868E-05  4.08397996816E-05
  4.15378990606E-05  4.22479314742E-05  4.29701009009E-05  4.37046148062E-05
  4.44516842015E-05  4.52115237056E-05  4.59843516055E-05  4.67703899198E-05
  4.75698644621E-05  4.83830049060E-05  4.92100448508E-05  5.00512218894E-05
  5.09067776754E-05  5.17769579936E-05  5.26620128298E-05  5.35621964433E-05
  5.44777674394E-05  5.54089888439E-05  5.63561281786E-05  5.73194575385E-05
  5.82992536693E-05  5.92957980475E-05  6.03093769611E-05  6.13402815917E-05
  6.23888080982E-05  6.34552577019E-05  6.45399367733E-05  6.56431569197E-05
  6.67652350747E-05  6.79064935899E-05  6.90672603266E-05  7.02478687506E-05
  7.14486580281E-05  7.26699731223E-05  7.39121648937E-05  7.51755901997E-05
  7.64606119981E-05  7.77675994507E-05  7.90969280298E-05  8.04489796257E-05
  8.18241426568E-05  8.32228121806E-05  8.46453900079E-05  8.60922848179E-05
  8.75639122753E-05  8.90606951502E-05  9.05830634395E-05  9.21314544901E-05
  9.37063131247E-05  9.53080917697E-05  9.69372505853E-05  9.85942575971E-05
  1.00279588831E-04  1.01993728451E-04  1.03737168895E-04  1.05510411020E-04
  1.07313964245E-04  1.09148346695E-04  1.11014085352E-04  1.12911716209E-04
  1.14841784416E-04  1.16804844446E-04  1.18801460247E-04  1.20832205409E-04
  1.22897663326E-04  1.24998427363E-04  1.27135101029E-04  1.29308298150E-04
  1.31518643042E-04  1.33766770696E-04  1.36053326954E-04  1.38378968700E-04
  1.40744364047E-04  1.43150192525E-04  1.45597145284E-04  1.48085925286E-04
  1.50617247508E-04  1.53191839150E-04  1.55810439844E-04  1.58473801862E-04
  1.61182690337E-04  1.63937883479E-04  1.66740172803E-04  1.69590363352E-04
  1.72489273931E-04  1.75437737341E-04  1.78436600617E-04  1.81486725276E-04
  1.84588987560E-04  1.87744278687E-04  1.90953505113E-04  1.94217588785E-04
  1.97537467413E-04  2.00914094733E-04  2.04348440784E-04  2.07841492187E-04
  2.11394252430E-04  2.15007742150E-04  2.18682999435E-04  2.22421080113E-04
  2.26223058064E-04  2.30090025521E-04  2.34023093391E-04  2.38023391567E-04
  2.42092069257E-04  2.46230295314E-04  2.50439258570E-04  2.54720168179E-04
  2.59074253963E-04  2.63502766767E-04  2.68006978817E-04  2.72588184085E-04
  2.77247698664E-04  2.81986861142E-04  2.86807032989E-04  2.91709598946E-04
  2.96695967426E-04  3.01767570916E-04  3.06925866390E-04  3.12172335726E-04
  3.17508486134E-04  3.22935850585E-04  3.28455988257E-04  3.34070484979E-04
  3.39780953686E-04  3.45589034886E-04  3.51496397129E-04  3.57504737485E-04
  3.63615782034E-04  3.69831286361E-04  3.76153036059E-04  3.82582847246E-04
  3.89122567082E-04  3.95774074302E-04  4.02539279754E-04  4.09420126952E-04
  4.16418592630E-04  4.23536687312E-04  4.30776455888E-04  4.38139978204E-04
  4.45629369657E-04  4.53246781805E-04  4.60994402983E-04  4.68874458932E-04
  4.76889213440E-04  4.85040968990E-04  4.93332067426E-04  5.01764890617E-04
  5.10341861152E-04  5.19065443029E-04  5.27938142363E-04  5.36962508109E-04
  5.46141132793E-04  5.55476653256E-04  5.64971751412E-04  5.74629155021E-04
  5.84451638465E-04  5.94442023556E-04  6.04603180338E-04  6.14938027913E-04
  6.25449535284E-04  6.36140722204E-04  6.47014660044E-04  6.58074472675E-04
  6.69323337368E-04  6.80764485703E-04  6.92401204502E-04  7.04236836768E-04
  7.16274782651E-04  7.28518500417E-04  7.40971507452E-04  7.53637381262E-04
  7.66519760508E-04  7.79622346048E-04  7.92948902002E-04  8.06503256832E-04
  8.20289304440E-04  8.34311005293E-04  8.48572387553E-04  8.63077548239E-04
  8.77830654403E-04  8.92835944328E-04  9.08097728742E-04  9.23620392062E-04
  9.39408393647E-04  9.55466269085E-04  9.71798631493E-04  9.88410172843E-04
  1.00530566531E-03  1.02248996264E-03  1.03996800155E-03  1.05774480314E-03
  1.07582547435E-03  1.09421520940E-03  1.11291929130E-03  1.13194309338E-03
  1.15129208081E-03  1.17097181217E-03  1.19098794107E-03  1.21134621777E-03
  1.23205249079E-03  1.25311270865E-03  1.27453292154E-03  1.29631928308E-03
  1.31847805206E-03  1.34101559428E-03  1.36393838432E-03  1.38725300747E-03
  1.41096616157E-03  1.43508465893E-03  1.45961542836E-03  1.48456551704E-03
  1.50994209268E-03  1.53575244546E-03  1.56200399020E-03  1.58870426845E-03
  1.61586095071E-03  1.64348183854E-03  1.67157486690E-03  1.70014810638E-03
  1.72920976551E-03  1.75876819314E-03  1.78883188084E-03  1.81940946533E-03
  1.85050973095E-03  1.88214161220E-03  1.91431419632E-03  1.94703672586E-03
  1.98031860138E-03  2.01416938411E-03  2.04859879873E-03  2.08361673614E-03
  2.11923325632E-03  2.15545859121E-03  2.19230314764E-03  2.22977751034E-03
  2.26789244497E-03  2.30665890122E-03  2.34608801593E-03  2.38619111633E-03
  2.42697972326E-03  2.46846555450E-03  2.51066052814E-03  2.55357676595E-03
  2.59722659696E-03  2.64162256091E-03  2.68677741190E-03  2.73270412206E-03
  2.77941588523E-03  2.82692612079E-03  2.87524847753E-03  2.92439683752E-03
  2.97438532013E-03  3.02522828608E-03  3.07694034158E-03  3.12953634250E-03
  3.18303139866E-03  3.23744087813E-03  3.29278041173E-03  3.34906589742E-03
  3.40631350493E-03  3.46453968040E-03  3.52376115108E-03  3.58399493015E-03
  3.64525832161E-03  3.70756892524E-03  3.77094464169E-03  3.83540367756E-03
  3.90096455068E-03  3.96764609544E-03  4.03546746814E-03  4.10444815255E-03
  4.17460796550E-03  4.24596706253E-03  4.31854594373E-03  4.39236545962E-03
  4.46744681711E-03  4.54381158562E-03  4.62148170327E-03  4.70047948318E-03
  4.78082761989E-03  4.86254919587E-03  4.94566768813E-03  5.03020697502E-03
  5.11619134303E-03  5.20364549382E-03  5.29259455125E-03  5.38306406869E-03
  5.47508003627E-03  5.56866888839E-03  5.66385751133E-03  5.76067325093E-03
  5.85914392048E-03  5.95929780870E-03  6.06116368786E-03  6.16477082206E-03
  6.27014897563E-03  6.37732842166E-03  6.48633995075E-03  6.59721487978E-03
  6.70998506099E-03  6.82468289106E-03  6.94134132046E-03  7.05999386290E-03
  7.18067460497E-03  7.30341821589E-03  7.42825995754E-03  7.55523569454E-03
  7.68438190455E-03  7.81573568878E-03  7.94933478263E-03  8.08521756654E-03
  8.22342307700E-03  8.36399101778E-03  8.50696177133E-03  8.65237641038E-03
  8.80027670974E-03  8.95070515831E-03  9.10370497127E-03  9.25932010250E-03
  9.41759525721E-03  9.57857590481E-03  9.74230829192E-03  9.90883945567E-03
  1.00782172373E-02  1.02504902956E-02  1.04257081215E-02  1.06039210516E-02
  1.07851802830E-02  1.09695378880E-02  1.11570468289E-02  1.13477609736E-02
  1.15417351103E-02  1.17390249642E-02  1.19396872128E-02  1.21437795025E-02
  1.23513604651E-02  1.25624897345E-02  1.27772279642E-02  1.29956368442E-02
  1.32177791191E-02  1.34437186062E-02  1.36735202136E-02  1.39072499587E-02
  1.41449749876E-02  1.43867635941E-02  1.46326852394E-02  1.48828105719E-02
  1.51372114480E-02  1.53959609520E-02  1.56591334177E-02  1.59268044494E-02
  1.61990509438E-02  1.64759511120E-02  1.67575845022E-02  1.70440320222E-02
  1.73353759627E-02  1.76317000213E-02  1.79330893261E-02  1.82396304605E-02
  1.85514114878E-02  1.88685219765E-02  1.91910530266E-02  1.95190972948E-02
  1.98527490219E-02  2.01921040597E-02  2.05372598982E-02  2.08883156941E-02
  2.12453722988E-02  2.16085322880E-02  2.19778999903E-02  2.23535815179E-02
  2.27356847970E-02  2.31243195984E-02  2.35195975693E-02  2.39216322655E-02
  2.43305391837E-02  2.47464357950E-02  2.51694415785E-02  2.55996780555E-02
  2.60372688246E-02  2.64823395972E-02  2.69350182335E-02  2.73954347793E-02
  2.78637215034E-02  2.83400129355E-02  2.88244459049E-02  2.93171595799E-02
  2.98182955075E-02  3.03279976544E-02  3.08464124481E-02  3.13736888192E-02
  3.19099782441E-02  3.24554347881E-02  3.30102151506E-02  3.35744787091E-02
  3.41483875656E-02  3.47321065931E-02  3.53258034827E-02  3.59296487921E-02
  3.65438159943E-02  3.71684815277E-02  3.78038248465E-02  3.84500284728E-02
  3.91072780481E-02  3.97757623877E-02  4.04556735341E-02  4.11472068127E-02
  4.18505608876E-02  4.25659378187E-02  4.32935431201E-02  4.40335858187E-02
  4.47862785144E-02  4.55518374413E-02  4.63304825296E-02  4.71224374690E-02
  4.79279297728E-02  4.87471908434E-02  4.95804560386E-02  5.04279647394E-02