 
             +---------------------------------------------------+
             |                                                   |
             |                   WANNIER90                       |
             |                                                   |
             +---------------------------------------------------+
             |                                                   |
             |        Welcome to the Maximally-Localized         |
             |        Generalized Wannier Functions code         |
             |            http://www.wannier.org                 |
             |                                                   |
             |                                                   |
             |  Wannier90 Developer Group:                       |
             |    Giovanni Pizzi    (EPFL)                       |
             |    Valerio Vitale    (Cambridge)                  |
             |    David Vanderbilt  (Rutgers University)         |
             |    Nicola Marzari    (EPFL)                       |
             |    Ivo Souza         (Universidad del Pais Vasco) |
             |    Arash A. Mostofi  (Imperial College London)    |
             |    Jonathan R. Yates (University of Oxford)       |
             |                                                   |
             |  For the full list of Wannier90 3.x authors,      |
             |  please check the code documentation and the      |
             |  README on the GitHub page of the code            |
             |                                                   |
             |                                                   |
             |  Please cite                                      |
             |                                                   |
             |  [ref] "Wannier90 as a community code:            |
             |        new features and applications",            |
             |        G. Pizzi et al., J. Phys. Cond. Matt. 32,  |
             |        165902 (2020).                             |
             |        http://doi.org/10.1088/1361-648X/ab51ff    |
             |                                                   |
             |  in any publications arising from the use of      |
             |  this code. For the method please cite            |
             |                                                   |
             |  [ref] "Maximally Localized Generalised Wannier   |
             |         Functions for Composite Energy Bands"     |
             |         N. Marzari and D. Vanderbilt              |
             |         Phys. Rev. B 56 12847 (1997)              |
             |                                                   |
             |  [ref] "Maximally Localized Wannier Functions     |
             |         for Entangled Energy Bands"               |
             |         I. Souza, N. Marzari and D. Vanderbilt    |
             |         Phys. Rev. B 65 035109 (2001)             |
             |                                                   |
             |                                                   |
             | Copyright (c) 1996-2020                           |
             |        The Wannier90 Developer Group and          |
             |        individual contributors                    |
             |                                                   |
             |      Release: 3.1.0        5th March    2020      |
             |                                                   |
             | This program is free software; you can            |
             | redistribute it and/or modify it under the terms  |
             | of the GNU General Public License as published by |
             | the Free Software Foundation; either version 2 of |
             | the License, or (at your option) any later version|
             |                                                   |
             | This program is distributed in the hope that it   |
             | will be useful, but WITHOUT ANY WARRANTY; without |
             | even the implied warranty of MERCHANTABILITY or   |
             | FITNESS FOR A PARTICULAR PURPOSE. See the GNU     |
             | General Public License for more details.          |
             |                                                   |
             | You should have received a copy of the GNU General|
             | Public License along with this program; if not,   |
             | write to the Free Software Foundation, Inc.,      |
             | 675 Mass Ave, Cambridge, MA 02139, USA.           |
             |                                                   |
             +---------------------------------------------------+
             |    Execution started on  8May2023 at 14:44:51     |
             +---------------------------------------------------+
 
 ******************************************************************************
 * -> Using CODATA 2006 constant values                                       *
 *    (http://physics.nist.gov/cuu/Constants/index.html)                      *
 * -> Using Bohr value from CODATA                                            *
 ******************************************************************************
 

 Running in parallel on   4 CPUs

 
                                    ------
                                    SYSTEM
                                    ------
 
                              Lattice Vectors (Ang)
                    a_1    -2.698804   0.000000   2.698804
                    a_2     0.000000   2.698804   2.698804
                    a_3    -2.698804   2.698804   0.000000
 
                   Unit Cell Volume:      39.31370  (Ang^3)
 
                        Reciprocal-Space Vectors (Ang^-1)
                    b_1    -1.164069  -1.164069   1.164069
                    b_2     1.164069   1.164069   1.164069
                    b_3    -1.164069   1.164069  -1.164069
  
 *----------------------------------------------------------------------------*
 |   Site       Fractional Coordinate          Cartesian Coordinate (Ang)     |
 +----------------------------------------------------------------------------+
 | Si   1  -0.25000   0.75000  -0.25000   |    1.34940   1.34940   1.34940    |
 | Si   2   0.00000   0.00000   0.00000   |    0.00000   0.00000   0.00000    |
 *----------------------------------------------------------------------------*
                                ------------
                                K-POINT GRID
                                ------------
  
             Grid size =  4 x  4 x  4      Total points =   64
  
  
 *---------------------------------- MAIN ------------------------------------*
 |  Number of Wannier Functions               :                 8             |
 |  Number of Objective Wannier Functions     :                 8             |
 |  Number of input Bloch states              :                12             |
 |  Output verbosity (1=low, 5=high)          :                 1             |
 |  Timing Level (1=low, 5=high)              :                 1             |
 |  Optimisation (0=memory, 3=speed)          :                 3             |
 |  Length Unit                               :               Ang             |
 |  Post-processing setup (write *.nnkp)      :                 F             |
 |  Using Gamma-only branch of algorithms     :                 F             |
 |  Wavefunction (UNK) file-type              :       unformatted             |
 |  Wavefunction spin channel                 :                up             |
 *----------------------------------------------------------------------------*
 *------------------------------- WANNIERISE ---------------------------------*
 |  Total number of iterations                :               100             |
 |  Number of CG steps before reset           :                 5             |
 |  Trial step length for line search         :             2.000             |
 |  Convergence tolerence                     :         0.100E-09             |
 |  Convergence window                        :                -1             |
 |  Iterations between writing output         :                 1             |
 |  Iterations between backing up to disk     :               100             |
 |  Write r^2_nm to file                      :                 F             |
 |  Write xyz WF centres to file              :                 F             |
 |  Write on-site energies <0n|H|0n> to file  :                 F             |
 |  Use guiding centre to control phases      :                 F             |
 |  Use phases for initial projections        :                 F             |
 *----------------------------------------------------------------------------*
 *------------------------------- DISENTANGLE --------------------------------*
 |  Using band disentanglement                :                 T             |
 |  Total number of iterations                :               100             |
 |  Mixing ratio                              :             0.500             |
 |  Convergence tolerence                     :         1.000E-10             |
 |  Convergence window                        :                 3             |
 *----------------------------------------------------------------------------*
 *-------------------------------- PLOTTING ----------------------------------*
 |  Plotting Wannier functions                :                 T             |
 |   Size of supercell for plotting           :     3x    3x    3             |
 |   Plotting mode (molecule or crystal)      :           crystal             |
 |   Plotting format                          :          xcrysden             |
 *----------------------------------------------------------------------------*
 |  Plotting interpolated bandstructure       :                 T             |
 |   Number of K-path sections                :                 2             |
 |   Divisions along first K-path section     :               100             |
 |   Output format                            :           gnuplot             |
 |   Output mode                              :               s-k             |
 *----------------------------------------------------------------------------*
 |   K-space path sections:                                                   |
 |    From: L       0.500  0.500  0.500     To: G       0.000  0.000  0.000   |
 |    From: G       0.000  0.000  0.000     To: X       0.500  0.000  0.500   |
 *----------------------------------------------------------------------------*
 Time to read parameters        0.009 (sec)

 *---------------------------------- K-MESH ----------------------------------*
 +----------------------------------------------------------------------------+
 |                    Distance to Nearest-Neighbour Shells                    |
 |                    ------------------------------------                    |
 |          Shell             Distance (Ang^-1)          Multiplicity         |
 |          -----             -----------------          ------------         |
 |             1                   0.504056                      8            |
 |             2                   0.582034                      6            |
 |             3                   0.823121                     12            |
 |             4                   0.965195                     24            |
 |             5                   1.008113                      8            |
 |             6                   1.164069                      6            |
 |             7                   1.268514                     24            |
 |             8                   1.301468                     24            |
 |             9                   1.425687                     24            |
 |            10                   1.512169                     32            |
 |            11                   1.646242                     12            |
 |            12                   1.721681                     48            |
 |            13                   1.746103                     30            |
 |            14                   1.840554                     24            |
 |            15                   1.908327                     24            |
 |            16                   1.930389                     24            |
 |            17                   2.016226                      8            |
 |            18                   2.078278                     48            |
 |            19                   2.098554                     24            |
 |            20                   2.177773                     48            |
 |            21                   2.235345                     72            |
 |            22                   2.328137                      6            |
 |            23                   2.382078                     24            |
 |            24                   2.399789                     48            |
 |            25                   2.469362                     36            |
 |            26                   2.520282                     56            |
 |            27                   2.537029                     24            |
 |            28                   2.602936                     24            |
 |            29                   2.651292                     72            |
 |            30                   2.667216                     48            |
 |            31                   2.729983                     24            |
 |            32                   2.776127                     48            |
 |            33                   2.851374                     24            |
 |            34                   2.895584                     72            |
 |            35                   2.910171                     30            |
 |            36                   2.967804                     72            |
 +----------------------------------------------------------------------------+
 | The b-vectors are chosen automatically                                     |
 | The following shells are used:   1                                         |
 +----------------------------------------------------------------------------+
 |                        Shell   # Nearest-Neighbours                        |
 |                        -----   --------------------                        |
 |                          1               8                                 |
 +----------------------------------------------------------------------------+
 | Completeness relation is fully satisfied [Eq. (B1), PRB 56, 12847 (1997)]  |
 +----------------------------------------------------------------------------+
 |                  b_k Vectors (Ang^-1) and Weights (Ang^2)                  |
 |                  ----------------------------------------                  |
 |            No.         b_k(x)      b_k(y)      b_k(z)        w_b           |
 |            ---        --------------------------------     --------        |
 |             1        -0.291017    0.291017   -0.291017     1.475954        |
 |             2         0.291017    0.291017    0.291017     1.475954        |
 |             3        -0.291017   -0.291017    0.291017     1.475954        |
 |             4        -0.291017    0.291017    0.291017     1.475954        |
 |             5         0.291017   -0.291017    0.291017     1.475954        |
 |             6        -0.291017   -0.291017   -0.291017     1.475954        |
 |             7         0.291017    0.291017   -0.291017     1.475954        |
 |             8         0.291017   -0.291017   -0.291017     1.475954        |
 +----------------------------------------------------------------------------+
 |                           b_k Directions (Ang^-1)                          |
 |                           -----------------------                          |
 |            No.           x           y           z                         |
 |            ---        --------------------------------                     |
 |             1        -0.291017    0.291017   -0.291017                     |
 |             2         0.291017    0.291017    0.291017                     |
 |             3        -0.291017   -0.291017    0.291017                     |
 |             4        -0.291017    0.291017    0.291017                     |
 +----------------------------------------------------------------------------+
  
 Time to get kmesh              0.032 (sec)
 *============================================================================*
 |                              MEMORY ESTIMATE                               |
 |         Maximum RAM allocated during each phase of the calculation         |
 *============================================================================*
 |                        Disentanglement            1.92 Mb                  |
 |                            Wannierise:            1.54 Mb                  |
 |                          plot_wannier:            1.54 Mb                  |
 *----------------------------------------------------------------------------*
  
 Starting a new Wannier90 calculation ...


 Reading overlaps from silicon.mmn    :  Created on  8May2023 at 14:32:46

 Reading projections from silicon.amn :  Created on  8May2023 at 14:32:45

 Time to read overlaps          0.062 (sec)

 *------------------------------- DISENTANGLE --------------------------------*
 +----------------------------------------------------------------------------+
 |                              Energy  Windows                               |
 |                              ---------------                               |
 |                   Outer:   -5.69265  to   17.00000  (eV)                   |
 |                   Inner:   -5.69265  to    6.39800  (eV)                   |
 +----------------------------------------------------------------------------+
   Number of target bands to extract:    8

                   Unitarised projection of Wannier functions                  
                   ------------------------------------------                  
   A_mn = <psi_m|g_n> --> S = A.A^+ --> U = S^-1/2.A
   In dis_project... done
   Using an inner window (linner = T)
   In dis_proj_froz... done

                   Extraction of optimally-connected subspace                  
                   ------------------------------------------                  
 +---------------------------------------------------------------------+<-- DIS
 |  Iter     Omega_I(i-1)      Omega_I(i)      Delta (frac.)    Time   |<-- DIS
 +---------------------------------------------------------------------+<-- DIS
       1      13.20823885      12.66673126       4.275E-02      0.00    <-- DIS
       2      12.83221124      12.61511014       1.721E-02      0.00    <-- DIS
       3      12.71081452      12.58983095       9.610E-03      0.00    <-- DIS
       4      12.64177214      12.57661206       5.181E-03      0.00    <-- DIS
       5      12.60333197      12.56942264       2.698E-03      0.00    <-- DIS
       6      12.58224925      12.56539632       1.341E-03      0.00    <-- DIS
       7      12.57084491      12.56308646       6.176E-04      0.00    <-- DIS
       8      12.56477562      12.56173467       2.421E-04      0.00    <-- DIS
       9      12.56161975      12.56093068       5.486E-05      0.00    <-- DIS
      10      12.56003941      12.56044631      -3.240E-05      0.01    <-- DIS
      11      12.55930030      12.56015154      -6.777E-05      0.01    <-- DIS
      12      12.55900175      12.55997076      -7.715E-05      0.01    <-- DIS
      13      12.55892664      12.55985922      -7.425E-05      0.01    <-- DIS
      14      12.55895848      12.55979011      -6.621E-05      0.01    <-- DIS
      15      12.55903574      12.55974713      -5.664E-05      0.01    <-- DIS
      16      12.55912681      12.55972033      -4.726E-05      0.01    <-- DIS
      17      12.55921623      12.55970360      -3.880E-05      0.01    <-- DIS
      18      12.55929713      12.55969313      -3.153E-05      0.01    <-- DIS
      19      12.55936711      12.55968657      -2.544E-05      0.01    <-- DIS
      20      12.55942604      12.55968247      -2.042E-05      0.01    <-- DIS
      21      12.55947478      12.55967989      -1.633E-05      0.01    <-- DIS
      22      12.55951463      12.55967828      -1.303E-05      0.01    <-- DIS
      23      12.55954694      12.55967726      -1.038E-05      0.01    <-- DIS
      24      12.55957297      12.55967663      -8.253E-06      0.01    <-- DIS
      25      12.55959387      12.55967623      -6.557E-06      0.01    <-- DIS
      26      12.55961059      12.55967597      -5.206E-06      0.01    <-- DIS
      27      12.55962393      12.55967582      -4.131E-06      0.01    <-- DIS
      28      12.55963456      12.55967572      -3.277E-06      0.01    <-- DIS
      29      12.55964301      12.55967566      -2.599E-06      0.02    <-- DIS
      30      12.55964974      12.55967562      -2.061E-06      0.02    <-- DIS
      31      12.55965508      12.55967559      -1.634E-06      0.02    <-- DIS
      32      12.55965931      12.55967558      -1.295E-06      0.02    <-- DIS
      33      12.55966268      12.55967557      -1.026E-06      0.02    <-- DIS
      34      12.55966535      12.55967556      -8.134E-07      0.02    <-- DIS
      35      12.55966746      12.55967556      -6.446E-07      0.02    <-- DIS
      36      12.55966914      12.55967556      -5.109E-07      0.02    <-- DIS
      37      12.55967047      12.55967555      -4.049E-07      0.02    <-- DIS
      38      12.55967152      12.55967555      -3.209E-07      0.02    <-- DIS
      39      12.55967236      12.55967555      -2.543E-07      0.02    <-- DIS
      40      12.55967302      12.55967555      -2.015E-07      0.02    <-- DIS
      41      12.55967355      12.55967555      -1.597E-07      0.02    <-- DIS
      42      12.55967396      12.55967555      -1.266E-07      0.02    <-- DIS
      43      12.55967429      12.55967555      -1.003E-07      0.02    <-- DIS
      44      12.55967455      12.55967555      -7.949E-08      0.02    <-- DIS
      45      12.55967476      12.55967555      -6.300E-08      0.02    <-- DIS
      46      12.55967492      12.55967555      -4.993E-08      0.02    <-- DIS
      47      12.55967505      12.55967555      -3.957E-08      0.02    <-- DIS
      48      12.55967516      12.55967555      -3.136E-08      0.02    <-- DIS
      49      12.55967524      12.55967555      -2.485E-08      0.02    <-- DIS
      50      12.55967530      12.55967555      -1.970E-08      0.03    <-- DIS
      51      12.55967536      12.55967555      -1.561E-08      0.03    <-- DIS
      52      12.55967540      12.55967555      -1.237E-08      0.03    <-- DIS
      53      12.55967543      12.55967555      -9.806E-09      0.03    <-- DIS
      54      12.55967545      12.55967555      -7.772E-09      0.03    <-- DIS
      55      12.55967547      12.55967555      -6.160E-09      0.03    <-- DIS
      56      12.55967549      12.55967555      -4.882E-09      0.03    <-- DIS
      57      12.55967550      12.55967555      -3.869E-09      0.03    <-- DIS
      58      12.55967551      12.55967555      -3.067E-09      0.03    <-- DIS
      59      12.55967552      12.55967555      -2.431E-09      0.03    <-- DIS
      60      12.55967553      12.55967555      -1.926E-09      0.03    <-- DIS
      61      12.55967553      12.55967555      -1.527E-09      0.03    <-- DIS
      62      12.55967554      12.55967555      -1.210E-09      0.03    <-- DIS
      63      12.55967554      12.55967555      -9.591E-10      0.03    <-- DIS
      64      12.55967554      12.55967555      -7.601E-10      0.03    <-- DIS
      65      12.55967554      12.55967555      -6.024E-10      0.03    <-- DIS
      66      12.55967555      12.55967555      -4.775E-10      0.03    <-- DIS
      67      12.55967555      12.55967555      -3.784E-10      0.03    <-- DIS
      68      12.55967555      12.55967555      -2.999E-10      0.03    <-- DIS
      69      12.55967555      12.55967555      -2.377E-10      0.03    <-- DIS
      70      12.55967555      12.55967555      -1.884E-10      0.04    <-- DIS
      71      12.55967555      12.55967555      -1.493E-10      0.04    <-- DIS
      72      12.55967555      12.55967555      -1.184E-10      0.04    <-- DIS
      73      12.55967555      12.55967555      -9.380E-11      0.04    <-- DIS
      74      12.55967555      12.55967555      -7.435E-11      0.04    <-- DIS
      75      12.55967555      12.55967555      -5.892E-11      0.04    <-- DIS

             <<<      Delta < 1.000E-10  over  3 iterations     >>>
             <<< Disentanglement convergence criteria satisfied >>>

        Final Omega_I    12.55967555 (Ang^2)

 +----------------------------------------------------------------------------+

 Time to disentangle bands      0.048 (sec)

 Writing checkpoint file silicon.chk... done

 
 *------------------------------- WANNIERISE ---------------------------------*
 +--------------------------------------------------------------------+<-- CONV
 | Iter  Delta Spread     RMS Gradient      Spread (Ang^2)      Time  |<-- CONV
 +--------------------------------------------------------------------+<-- CONV
 
 ------------------------------------------------------------------------------
 Initial State
  WF centre and spread    1  (  1.776281,  1.776281,  1.776281 )     2.22267323
  WF centre and spread    2  (  1.776281,  0.922523,  0.922523 )     2.22267323
  WF centre and spread    3  (  0.922523,  1.776281,  0.922523 )     2.22267323
  WF centre and spread    4  (  0.922523,  0.922523,  1.776281 )     2.22267323
  WF centre and spread    5  (  0.233931,  0.233931,  0.233931 )     2.50486498
  WF centre and spread    6  (  0.233931, -0.233931, -0.233931 )     2.50486498
  WF centre and spread    7  ( -0.233931,  0.233931, -0.233931 )     2.50486498
  WF centre and spread    8  ( -0.233931, -0.233931,  0.233931 )     2.50486497
  Sum of centres and spreads (  5.397608,  5.397608,  5.397608 )    18.91015282
 
      0     0.189E+02     0.0000000000       18.9101528150       0.04  <-- CONV
        O_D=      0.1771737 O_OD=      6.1733036 O_TOT=     18.9101528 <-- SPRD
 ------------------------------------------------------------------------------
 Cycle:      1
  WF centre and spread    1  (  1.796505,  1.796505,  1.796505 )     2.14951221
  WF centre and spread    2  (  1.796505,  0.902299,  0.902299 )     2.14951221
  WF centre and spread    3  (  0.902299,  1.796505,  0.902299 )     2.14951221
  WF centre and spread    4  (  0.902299,  0.902299,  1.796505 )     2.14951221
  WF centre and spread    5  (  0.227204,  0.227204,  0.227204 )     2.47593750
  WF centre and spread    6  (  0.227204, -0.227204, -0.227204 )     2.47593750
  WF centre and spread    7  ( -0.227204,  0.227204, -0.227204 )     2.47593750
  WF centre and spread    8  ( -0.227204, -0.227204,  0.227204 )     2.47593750
  Sum of centres and spreads (  5.397608,  5.397608,  5.397608 )    18.50179884
 
      1    -0.408E+00     0.4856939625       18.5017988435       0.04  <-- CONV
        O_D=      0.2027146 O_OD=      5.7394087 O_TOT=     18.5017988 <-- SPRD
 Delta: O_D=  0.2554088E-01 O_OD= -0.4338948E+00 O_TOT= -0.4083540E+00 <-- DLTA
 ------------------------------------------------------------------------------
 Cycle:      2
  WF centre and spread    1  (  1.803147,  1.803147,  1.803147 )     2.12329354
  WF centre and spread    2  (  1.803147,  0.895656,  0.895656 )     2.12329354
  WF centre and spread    3  (  0.895656,  1.803147,  0.895656 )     2.12329353
  WF centre and spread    4  (  0.895656,  0.895656,  1.803147 )     2.12329353
  WF centre and spread    5  (  0.227462,  0.227462,  0.227462 )     2.46826713
  WF centre and spread    6  (  0.227462, -0.227462, -0.227462 )     2.46826713
  WF centre and spread    7  ( -0.227462,  0.227462, -0.227462 )     2.46826713
  WF centre and spread    8  ( -0.227462, -0.227462,  0.227462 )     2.46826713
  Sum of centres and spreads (  5.397608,  5.397608,  5.397608 )    18.36624266
 
      2    -0.136E+00     0.3218096638       18.3662426591       0.04  <-- CONV
        O_D=      0.2025125 O_OD=      5.6040546 O_TOT=     18.3662427 <-- SPRD
 Delta: O_D= -0.2020899E-03 O_OD= -0.1353541E+00 O_TOT= -0.1355562E+00 <-- DLTA
 ------------------------------------------------------------------------------
 Cycle:      3
  WF centre and spread    1  (  1.803605,  1.803605,  1.803605 )     2.12214156
  WF centre and spread    2  (  1.803605,  0.895199,  0.895199 )     2.12214156
  WF centre and spread    3  (  0.895199,  1.803605,  0.895199 )     2.12214155
  WF centre and spread    4  (  0.895199,  0.895199,  1.803605 )     2.12214155
  WF centre and spread    5  (  0.229176,  0.229176,  0.229176 )     2.46381442
  WF centre and spread    6  (  0.229176, -0.229176, -0.229176 )     2.46381442
  WF centre and spread    7  ( -0.229176,  0.229176, -0.229176 )     2.46381442
  WF centre and spread    8  ( -0.229176, -0.229176,  0.229176 )     2.46381441
  Sum of centres and spreads (  5.397608,  5.397608,  5.397608 )    18.34382389
 
      3    -0.224E-01     0.1622854753       18.3438238870       0.04  <-- CONV
        O_D=      0.2003657 O_OD=      5.5837827 O_TOT=     18.3438239 <-- SPRD
 Delta: O_D= -0.2146809E-02 O_OD= -0.2027196E-01 O_TOT= -0.2241877E-01 <-- DLTA
 ------------------------------------------------------------------------------
 Cycle:      4
  WF centre and spread    1  (  1.803553,  1.803553,  1.803553 )     2.12297471
  WF centre and spread    2  (  1.803553,  0.895250,  0.895250 )     2.12297471
  WF centre and spread    3  (  0.895250,  1.803553,  0.895250 )     2.12297470
  WF centre and spread    4  (  0.895250,  0.895250,  1.803553 )     2.12297470
  WF centre and spread    5  (  0.229695,  0.229695,  0.229695 )     2.46232044
  WF centre and spread    6  (  0.229695, -0.229695, -0.229695 )     2.46232044
  WF centre and spread    7  ( -0.229695,  0.229695, -0.229695 )     2.46232044
  WF centre and spread    8  ( -0.229695, -0.229695,  0.229695 )     2.46232044
  Sum of centres and spreads (  5.397608,  5.397608,  5.397608 )    18.34118057
 
      4    -0.264E-02     0.0606398579       18.3411805749       0.05  <-- CONV
        O_D=      0.1995878 O_OD=      5.5819172 O_TOT=     18.3411806 <-- SPRD
 Delta: O_D= -0.7778304E-03 O_OD= -0.1865482E-02 O_TOT= -0.2643312E-02 <-- DLTA
 ------------------------------------------------------------------------------
 Cycle:      5
  WF centre and spread    1  (  1.803539,  1.803539,  1.803539 )     2.12332829
  WF centre and spread    2  (  1.803539,  0.895265,  0.895265 )     2.12332829
  WF centre and spread    3  (  0.895265,  1.803539,  0.895265 )     2.12332829
  WF centre and spread    4  (  0.895265,  0.895265,  1.803539 )     2.12332829
  WF centre and spread    5  (  0.229811,  0.229811,  0.229811 )     2.46187273
  WF centre and spread    6  (  0.229811, -0.229811, -0.229811 )     2.46187273
  WF centre and spread    7  ( -0.229811,  0.229811, -0.229811 )     2.46187273
  WF centre and spread    8  ( -0.229811, -0.229811,  0.229811 )     2.46187273
  Sum of centres and spreads (  5.397608,  5.397608,  5.397608 )    18.34080407
 
      5    -0.377E-03     0.0213491732       18.3408040718       0.05  <-- CONV
        O_D=      0.1994429 O_OD=      5.5816857 O_TOT=     18.3408041 <-- SPRD
 Delta: O_D= -0.1449603E-03 O_OD= -0.2315428E-03 O_TOT= -0.3765031E-03 <-- DLTA
 ------------------------------------------------------------------------------
 Cycle:      6
  WF centre and spread    1  (  1.803531,  1.803531,  1.803531 )     2.12323861
  WF centre and spread    2  (  1.803531,  0.895273,  0.895273 )     2.12323861
  WF centre and spread    3  (  0.895273,  1.803531,  0.895273 )     2.12323860
  WF centre and spread    4  (  0.895273,  0.895273,  1.803531 )     2.12323860
  WF centre and spread    5  (  0.229795,  0.229795,  0.229795 )     2.46194349
  WF centre and spread    6  (  0.229795, -0.229795, -0.229795 )     2.46194349
  WF centre and spread    7  ( -0.229795,  0.229795, -0.229795 )     2.46194349
  WF centre and spread    8  ( -0.229795, -0.229795,  0.229795 )     2.46194349
  Sum of centres and spreads (  5.397608,  5.397608,  5.397608 )    18.34072839
 
      6    -0.757E-04     0.0092937506       18.3407283917       0.05  <-- CONV
        O_D=      0.1994329 O_OD=      5.5816199 O_TOT=     18.3407284 <-- SPRD
 Delta: O_D= -0.9948778E-05 O_OD= -0.6573132E-04 O_TOT= -0.7568010E-04 <-- DLTA
 ------------------------------------------------------------------------------
 Cycle:      7
  WF centre and spread    1  (  1.803516,  1.803516,  1.803516 )     2.12297098
  WF centre and spread    2  (  1.803516,  0.895287,  0.895287 )     2.12297098
  WF centre and spread    3  (  0.895287,  1.803516,  0.895287 )     2.12297098
  WF centre and spread    4  (  0.895287,  0.895287,  1.803516 )     2.12297097
  WF centre and spread    5  (  0.229770,  0.229770,  0.229770 )     2.46220631
  WF centre and spread    6  (  0.229770, -0.229770, -0.229770 )     2.46220631
  WF centre and spread    7  ( -0.229770,  0.229770, -0.229770 )     2.46220630
  WF centre and spread    8  ( -0.229770, -0.229770,  0.229770 )     2.46220630
  Sum of centres and spreads (  5.397608,  5.397608,  5.397608 )    18.34070913
 
      7    -0.193E-04     0.0047595940       18.3407091304       0.05  <-- CONV
        O_D=      0.1994380 O_OD=      5.5815956 O_TOT=     18.3407091 <-- SPRD
 Delta: O_D=  0.5093185E-05 O_OD= -0.2435448E-04 O_TOT= -0.1926129E-04 <-- DLTA
 ------------------------------------------------------------------------------
 Cycle:      8
  WF centre and spread    1  (  1.803493,  1.803493,  1.803493 )     2.12249020
  WF centre and spread    2  (  1.803493,  0.895311,  0.895311 )     2.12249020
  WF centre and spread    3  (  0.895311,  1.803493,  0.895311 )     2.12249019
  WF centre and spread    4  (  0.895311,  0.895311,  1.803493 )     2.12249019
  WF centre and spread    5  (  0.229737,  0.229737,  0.229737 )     2.46268436
  WF centre and spread    6  (  0.229737, -0.229737, -0.229737 )     2.46268436
  WF centre and spread    7  ( -0.229737,  0.229737, -0.229737 )     2.46268436
  WF centre and spread    8  ( -0.229737, -0.229737,  0.229737 )     2.46268435
  Sum of centres and spreads (  5.397608,  5.397608,  5.397608 )    18.34069822
 
      8    -0.109E-04     0.0029951807       18.3406982182       0.05  <-- CONV
        O_D=      0.1994311 O_OD=      5.5815916 O_TOT=     18.3406982 <-- SPRD
 Delta: O_D= -0.6945686E-05 O_OD= -0.3966540E-05 O_TOT= -0.1091223E-04 <-- DLTA
 ------------------------------------------------------------------------------
 Cycle:      9
  WF centre and spread    1  (  1.803470,  1.803470,  1.803470 )     2.12193809
  WF centre and spread    2  (  1.803470,  0.895334,  0.895334 )     2.12193809
  WF centre and spread    3  (  0.895334,  1.803470,  0.895334 )     2.12193809
  WF centre and spread    4  (  0.895334,  0.895334,  1.803470 )     2.12193808
  WF centre and spread    5  (  0.229723,  0.229723,  0.229723 )     2.46323486
  WF centre and spread    6  (  0.229723, -0.229723, -0.229723 )     2.46323486
  WF centre and spread    7  ( -0.229723,  0.229723, -0.229723 )     2.46323486
  WF centre and spread    8  ( -0.229723, -0.229723,  0.229723 )     2.46323486
  Sum of centres and spreads (  5.397608,  5.397608,  5.397608 )    18.34069179
 
      9    -0.643E-05     0.0022130160       18.3406917895       0.05  <-- CONV
        O_D=      0.1994096 O_OD=      5.5816067 O_TOT=     18.3406918 <-- SPRD
 Delta: O_D= -0.2148345E-04 O_OD=  0.1505475E-04 O_TOT= -0.6428699E-05 <-- DLTA
 ------------------------------------------------------------------------------
 Cycle:     10
  WF centre and spread    1  (  1.803450,  1.803450,  1.803450 )     2.12145050
  WF centre and spread    2  (  1.803450,  0.895353,  0.895353 )     2.12145050
  WF centre and spread    3  (  0.895353,  1.803450,  0.895353 )     2.12145050
  WF centre and spread    4  (  0.895353,  0.895353,  1.803450 )     2.12145050
  WF centre and spread    5  (  0.229721,  0.229721,  0.229721 )     2.46372157
  WF centre and spread    6  (  0.229721, -0.229721, -0.229721 )     2.46372157
  WF centre and spread    7  ( -0.229721,  0.229721, -0.229721 )     2.46372157
  WF centre and spread    8  ( -0.229721, -0.229721,  0.229721 )     2.46372157
  Sum of centres and spreads (  5.397608,  5.397608,  5.397608 )    18.34068828
 
     10    -0.351E-05     0.0017148966       18.3406882784       0.05  <-- CONV
        O_D=      0.1993967 O_OD=      5.5816160 O_TOT=     18.3406883 <-- SPRD
 Delta: O_D= -0.1284614E-04 O_OD=  0.9335035E-05 O_TOT= -0.3511101E-05 <-- DLTA
 ------------------------------------------------------------------------------
 Cycle:     11
  WF centre and spread    1  (  1.803440,  1.803440,  1.803440 )     2.12104031
  WF centre and spread    2  (  1.803440,  0.895363,  0.895363 )     2.12104032
  WF centre and spread    3  (  0.895363,  1.803440,  0.895363 )     2.12104031
  WF centre and spread    4  (  0.895363,  0.895363,  1.803440 )     2.12104031
  WF centre and spread    5  (  0.229714,  0.229714,  0.229714 )     2.46413129
  WF centre and spread    6  (  0.229714, -0.229714, -0.229714 )     2.46413129
  WF centre and spread    7  ( -0.229714,  0.229714, -0.229714 )     2.46413129
  WF centre and spread    8  ( -0.229714, -0.229714,  0.229714 )     2.46413129
  Sum of centres and spreads (  5.397608,  5.397608,  5.397608 )    18.34068642
 
     11    -0.186E-05     0.0012072168       18.3406864168       0.05  <-- CONV
        O_D=      0.1993973 O_OD=      5.5816136 O_TOT=     18.3406864 <-- SPRD
 Delta: O_D=  0.5617105E-06 O_OD= -0.2423245E-05 O_TOT= -0.1861535E-05 <-- DLTA
 ------------------------------------------------------------------------------
 Cycle:     12
  WF centre and spread    1  (  1.803442,  1.803442,  1.803442 )     2.12078795
  WF centre and spread    2  (  1.803442,  0.895361,  0.895361 )     2.12078795
  WF centre and spread    3  (  0.895361,  1.803442,  0.895361 )     2.12078795
  WF centre and spread    4  (  0.895361,  0.895361,  1.803442 )     2.12078795
  WF centre and spread    5  (  0.229699,  0.229699,  0.229699 )     2.46438347
  WF centre and spread    6  (  0.229699, -0.229699, -0.229699 )     2.46438347
  WF centre and spread    7  ( -0.229699,  0.229699, -0.229699 )     2.46438347
  WF centre and spread    8  ( -0.229699, -0.229699,  0.229699 )     2.46438347
  Sum of centres and spreads (  5.397608,  5.397608,  5.397608 )    18.34068568
 
     12    -0.737E-06     0.0007645262       18.3406856800       0.06  <-- CONV
        O_D=      0.1994098 O_OD=      5.5816004 O_TOT=     18.3406857 <-- SPRD
 Delta: O_D=  0.1246257E-04 O_OD= -0.1319940E-04 O_TOT= -0.7368345E-06 <-- DLTA
 ------------------------------------------------------------------------------
 Cycle:     13
  WF centre and spread    1  (  1.803446,  1.803446,  1.803446 )     2.12077042
  WF centre and spread    2  (  1.803446,  0.895357,  0.895357 )     2.12077042
  WF centre and spread    3  (  0.895357,  1.803446,  0.895357 )     2.12077041
  WF centre and spread    4  (  0.895357,  0.895357,  1.803446 )     2.12077041
  WF centre and spread    5  (  0.229696,  0.229696,  0.229696 )     2.46440096
  WF centre and spread    6  (  0.229696, -0.229696, -0.229696 )     2.46440097
  WF centre and spread    7  ( -0.229696,  0.229696, -0.229696 )     2.46440096
  WF centre and spread    8  ( -0.229696, -0.229696,  0.229696 )     2.46440096
  Sum of centres and spreads (  5.397608,  5.397608,  5.397608 )    18.34068552
 
     13    -0.159E-06     0.0004384895       18.3406855208       0.06  <-- CONV
        O_D=      0.1994139 O_OD=      5.5815961 O_TOT=     18.3406855 <-- SPRD
 Delta: O_D=  0.4105222E-05 O_OD= -0.4264460E-05 O_TOT= -0.1592379E-06 <-- DLTA
 ------------------------------------------------------------------------------
 Cycle:     14
  WF centre and spread    1  (  1.803451,  1.803451,  1.803451 )     2.12074314
  WF centre and spread    2  (  1.803451,  0.895353,  0.895353 )     2.12074314
  WF centre and spread    3  (  0.895353,  1.803451,  0.895353 )     2.12074313
  WF centre and spread    4  (  0.895353,  0.895353,  1.803451 )     2.12074313
  WF centre and spread    5  (  0.229692,  0.229692,  0.229692 )     2.46442823
  WF centre and spread    6  (  0.229692, -0.229692, -0.229692 )     2.46442823
  WF centre and spread    7  ( -0.229692,  0.229692, -0.229692 )     2.46442823
  WF centre and spread    8  ( -0.229692, -0.229692,  0.229692 )     2.46442822
  Sum of centres and spreads (  5.397608,  5.397608,  5.397608 )    18.34068544
 
     14    -0.853E-07     0.0002753161       18.3406854355       0.06  <-- CONV
        O_D=      0.1994189 O_OD=      5.5815910 O_TOT=     18.3406854 <-- SPRD
 Delta: O_D=  0.5040030E-05 O_OD= -0.5125337E-05 O_TOT= -0.8530664E-07 <-- DLTA
 ------------------------------------------------------------------------------
 Cycle:     15
  WF centre and spread    1  (  1.803452,  1.803452,  1.803452 )     2.12071959
  WF centre and spread    2  (  1.803452,  0.895352,  0.895352 )     2.12071959
  WF centre and spread    3  (  0.895352,  1.803452,  0.895352 )     2.12071959
  WF centre and spread    4  (  0.895352,  0.895352,  1.803452 )     2.12071959
  WF centre and spread    5  (  0.229689,  0.229689,  0.229689 )     2.46445176
  WF centre and spread    6  (  0.229689, -0.229689, -0.229689 )     2.46445176
  WF centre and spread    7  ( -0.229689,  0.229689, -0.229689 )     2.46445176
  WF centre and spread    8  ( -0.229689, -0.229689,  0.229689 )     2.46445175
  Sum of centres and spreads (  5.397608,  5.397608,  5.397608 )    18.34068540
 
     15    -0.393E-07     0.0001808388       18.3406853962       0.06  <-- CONV
        O_D=      0.1994227 O_OD=      5.5815872 O_TOT=     18.3406854 <-- SPRD
 Delta: O_D=  0.3784045E-05 O_OD= -0.3823314E-05 O_TOT= -0.3926956E-07 <-- DLTA
 ------------------------------------------------------------------------------
 Cycle:     16
  WF centre and spread    1  (  1.803452,  1.803452,  1.803452 )     2.12070802
  WF centre and spread    2  (  1.803452,  0.895352,  0.895352 )     2.12070802
  WF centre and spread    3  (  0.895352,  1.803452,  0.895352 )     2.12070801
  WF centre and spread    4  (  0.895352,  0.895352,  1.803452 )     2.12070801
  WF centre and spread    5  (  0.229689,  0.229689,  0.229689 )     2.46446333
  WF centre and spread    6  (  0.229689, -0.229689, -0.229689 )     2.46446334
  WF centre and spread    7  ( -0.229689,  0.229689, -0.229689 )     2.46446333
  WF centre and spread    8  ( -0.229689, -0.229689,  0.229689 )     2.46446333
  Sum of centres and spreads (  5.397608,  5.397608,  5.397608 )    18.34068539
 
     16    -0.111E-07     0.0001073678       18.3406853851       0.06  <-- CONV
        O_D=      0.1994238 O_OD=      5.5815860 O_TOT=     18.3406854 <-- SPRD
 Delta: O_D=  0.1149041E-05 O_OD= -0.1160153E-05 O_TOT= -0.1111187E-07 <-- DLTA
 ------------------------------------------------------------------------------
 Cycle:     17
  WF centre and spread    1  (  1.803452,  1.803452,  1.803452 )     2.12069816
  WF centre and spread    2  (  1.803452,  0.895352,  0.895352 )     2.12069817
  WF centre and spread    3  (  0.895352,  1.803452,  0.895352 )     2.12069816
  WF centre and spread    4  (  0.895352,  0.895352,  1.803452 )     2.12069816
  WF centre and spread    5  (  0.229688,  0.229688,  0.229688 )     2.46447319
  WF centre and spread    6  (  0.229688, -0.229688, -0.229688 )     2.46447319
  WF centre and spread    7  ( -0.229688,  0.229688, -0.229688 )     2.46447318
  WF centre and spread    8  ( -0.229688, -0.229688,  0.229688 )     2.46447318
  Sum of centres and spreads (  5.397608,  5.397608,  5.397608 )    18.34068538
 
     17    -0.468E-08     0.0000637563       18.3406853804       0.06  <-- CONV
        O_D=      0.1994242 O_OD=      5.5815856 O_TOT=     18.3406854 <-- SPRD
 Delta: O_D=  0.3692247E-06 O_OD= -0.3739059E-06 O_TOT= -0.4681183E-08 <-- DLTA
 ------------------------------------------------------------------------------
 Cycle:     18
  WF centre and spread    1  (  1.803452,  1.803452,  1.803452 )     2.12068963
  WF centre and spread    2  (  1.803452,  0.895352,  0.895352 )     2.12068964
  WF centre and spread    3  (  0.895352,  1.803452,  0.895352 )     2.12068963
  WF centre and spread    4  (  0.895352,  0.895352,  1.803452 )     2.12068963
  WF centre and spread    5  (  0.229688,  0.229688,  0.229688 )     2.46448172
  WF centre and spread    6  (  0.229688, -0.229688, -0.229688 )     2.46448172
  WF centre and spread    7  ( -0.229688,  0.229688, -0.229688 )     2.46448171
  WF centre and spread    8  ( -0.229688, -0.229688,  0.229688 )     2.46448171
  Sum of centres and spreads (  5.397608,  5.397608,  5.397608 )    18.34068538
 
     18    -0.247E-08     0.0000529327       18.3406853779       0.06  <-- CONV
        O_D=      0.1994243 O_OD=      5.5815855 O_TOT=     18.3406854 <-- SPRD
 Delta: O_D=  0.1362772E-06 O_OD= -0.1387466E-06 O_TOT= -0.2469378E-08 <-- DLTA
 ------------------------------------------------------------------------------
 Cycle:     19
  WF centre and spread    1  (  1.803452,  1.803452,  1.803452 )     2.12068800
  WF centre and spread    2  (  1.803452,  0.895352,  0.895352 )     2.12068800
  WF centre and spread    3  (  0.895352,  1.803452,  0.895352 )     2.12068799
  WF centre and spread    4  (  0.895352,  0.895352,  1.803452 )     2.12068799
  WF centre and spread    5  (  0.229687,  0.229687,  0.229687 )     2.46448335
  WF centre and spread    6  (  0.229687, -0.229687, -0.229687 )     2.46448335
  WF centre and spread    7  ( -0.229687,  0.229687, -0.229687 )     2.46448335
  WF centre and spread    8  ( -0.229687, -0.229687,  0.229687 )     2.46448334
  Sum of centres and spreads (  5.397608,  5.397608,  5.397608 )    18.34068538
 
     19    -0.110E-08     0.0000440681       18.3406853768       0.06  <-- CONV
        O_D=      0.1994243 O_OD=      5.5815855 O_TOT=     18.3406854 <-- SPRD
 Delta: O_D= -0.1249445E-07 O_OD=  0.1139137E-07 O_TOT= -0.1103082E-08 <-- DLTA
 ------------------------------------------------------------------------------
 Cycle:     20
  WF centre and spread    1  (  1.803452,  1.803452,  1.803452 )     2.12068344
  WF centre and spread    2  (  1.803452,  0.895352,  0.895352 )     2.12068344
  WF centre and spread    3  (  0.895352,  1.803452,  0.895352 )     2.12068343
  WF centre and spread    4  (  0.895352,  0.895352,  1.803452 )     2.12068343
  WF centre and spread    5  (  0.229687,  0.229687,  0.229687 )     2.46448791
  WF centre and spread    6  (  0.229687, -0.229687, -0.229687 )     2.46448791
  WF centre and spread    7  ( -0.229687,  0.229687, -0.229687 )     2.46448791
  WF centre and spread    8  ( -0.229687, -0.229687,  0.229687 )     2.46448790
  Sum of centres and spreads (  5.397608,  5.397608,  5.397608 )    18.34068538
 
     20    -0.101E-08     0.0000291776       18.3406853758       0.06  <-- CONV
        O_D=      0.1994243 O_OD=      5.5815856 O_TOT=     18.3406854 <-- SPRD
 Delta: O_D= -0.6304816E-07 O_OD=  0.6204040E-07 O_TOT= -0.1007763E-08 <-- DLTA
 ------------------------------------------------------------------------------
 Cycle:     21
  WF centre and spread    1  (  1.803452,  1.803452,  1.803452 )     2.12067846
  WF centre and spread    2  (  1.803452,  0.895352,  0.895352 )     2.12067846
  WF centre and spread    3  (  0.895352,  1.803452,  0.895352 )     2.12067845
  WF centre and spread    4  (  0.895352,  0.895352,  1.803452 )     2.12067845
  WF centre and spread    5  (  0.229687,  0.229687,  0.229687 )     2.46449289
  WF centre and spread    6  (  0.229687, -0.229687, -0.229687 )     2.46449289
  WF centre and spread    7  ( -0.229687,  0.229687, -0.229687 )     2.46449289
  WF centre and spread    8  ( -0.229687, -0.229687,  0.229687 )     2.46449288
  Sum of centres and spreads (  5.397608,  5.397608,  5.397608 )    18.34068538
 
     21    -0.595E-09     0.0000224929       18.3406853752       0.07  <-- CONV
        O_D=      0.1994241 O_OD=      5.5815857 O_TOT=     18.3406854 <-- SPRD
 Delta: O_D= -0.1539561E-06 O_OD=  0.1533610E-06 O_TOT= -0.5950476E-09 <-- DLTA
 ------------------------------------------------------------------------------
 Cycle:     22
  WF centre and spread    1  (  1.803451,  1.803451,  1.803451 )     2.12067340
  WF centre and spread    2  (  1.803451,  0.895352,  0.895352 )     2.12067340
  WF centre and spread    3  (  0.895352,  1.803451,  0.895352 )     2.12067339
  WF centre and spread    4  (  0.895352,  0.895352,  1.803451 )     2.12067339
  WF centre and spread    5  (  0.229686,  0.229686,  0.229686 )     2.46449795
  WF centre and spread    6  (  0.229686, -0.229686, -0.229686 )     2.46449796
  WF centre and spread    7  ( -0.229686,  0.229686, -0.229686 )     2.46449795
  WF centre and spread    8  ( -0.229686, -0.229686,  0.229686 )     2.46449795
  Sum of centres and spreads (  5.397608,  5.397608,  5.397608 )    18.34068537
 
     22    -0.426E-09     0.0000189244       18.3406853748       0.07  <-- CONV
        O_D=      0.1994239 O_OD=      5.5815859 O_TOT=     18.3406854 <-- SPRD
 Delta: O_D= -0.1789779E-06 O_OD=  0.1785516E-06 O_TOT= -0.4263079E-09 <-- DLTA
 ------------------------------------------------------------------------------
 Cycle:     23
  WF centre and spread    1  (  1.803451,  1.803451,  1.803451 )     2.12067077
  WF centre and spread    2  (  1.803451,  0.895353,  0.895353 )     2.12067078
  WF centre and spread    3  (  0.895353,  1.803451,  0.895353 )     2.12067077
  WF centre and spread    4  (  0.895353,  0.895353,  1.803451 )     2.12067077
  WF centre and spread    5  (  0.229686,  0.229686,  0.229686 )     2.46450058
  WF centre and spread    6  (  0.229686, -0.229686, -0.229686 )     2.46450058
  WF centre and spread    7  ( -0.229686,  0.229686, -0.229686 )     2.46450057
  WF centre and spread    8  ( -0.229686, -0.229686,  0.229686 )     2.46450057
  Sum of centres and spreads (  5.397608,  5.397608,  5.397608 )    18.34068537
 
     23    -0.133E-09     0.0000120009       18.3406853747       0.07  <-- CONV
        O_D=      0.1994239 O_OD=      5.5815859 O_TOT=     18.3406854 <-- SPRD
 Delta: O_D=  0.1156783E-07 O_OD= -0.1170068E-07 O_TOT= -0.1328466E-09 <-- DLTA
 ------------------------------------------------------------------------------
 Cycle:     24
  WF centre and spread    1  (  1.803451,  1.803451,  1.803451 )     2.12066801
  WF centre and spread    2  (  1.803451,  0.895353,  0.895353 )     2.12066801
  WF centre and spread    3  (  0.895353,  1.803451,  0.895353 )     2.12066800
  WF centre and spread    4  (  0.895353,  0.895353,  1.803451 )     2.12066800
  WF centre and spread    5  (  0.229686,  0.229686,  0.229686 )     2.46450334
  WF centre and spread    6  (  0.229686, -0.229686, -0.229686 )     2.46450334
  WF centre and spread    7  ( -0.229686,  0.229686, -0.229686 )     2.46450333
  WF centre and spread    8  ( -0.229686, -0.229686,  0.229686 )     2.46450333
  Sum of centres and spreads (  5.397608,  5.397608,  5.397608 )    18.34068537
 
     24    -0.501E-10     0.0000093805       18.3406853746       0.07  <-- CONV
        O_D=      0.1994241 O_OD=      5.5815858 O_TOT=     18.3406854 <-- SPRD
 Delta: O_D=  0.1089136E-06 O_OD= -0.1089637E-06 O_TOT= -0.5012524E-10 <-- DLTA
 ------------------------------------------------------------------------------
 Cycle:     25
  WF centre and spread    1  (  1.803451,  1.803451,  1.803451 )     2.12066784
  WF centre and spread    2  (  1.803451,  0.895353,  0.895353 )     2.12066785
  WF centre and spread    3  (  0.895353,  1.803451,  0.895353 )     2.12066784
  WF centre and spread    4  (  0.895353,  0.895353,  1.803451 )     2.12066784
  WF centre and spread    5  (  0.229686,  0.229686,  0.229686 )     2.46450351
  WF centre and spread    6  (  0.229686, -0.229686, -0.229686 )     2.46450351
  WF centre and spread    7  ( -0.229686,  0.229686, -0.229686 )     2.46450350
  WF centre and spread    8  ( -0.229686, -0.229686,  0.229686 )     2.46450350
  Sum of centres and spreads (  5.397608,  5.397608,  5.397608 )    18.34068537
 
     25    -0.456E-10     0.0000101123       18.3406853746       0.07  <-- CONV
        O_D=      0.1994241 O_OD=      5.5815857 O_TOT=     18.3406854 <-- SPRD
 Delta: O_D=  0.2689956E-07 O_OD= -0.2694518E-07 O_TOT= -0.4562750E-10 <-- DLTA
 ------------------------------------------------------------------------------
 Cycle:     26
  WF centre and spread    1  (  1.803451,  1.803451,  1.803451 )     2.12066773
  WF centre and spread    2  (  1.803451,  0.895353,  0.895353 )     2.12066773
  WF centre and spread    3  (  0.895353,  1.803451,  0.895353 )     2.12066772
  WF centre and spread    4  (  0.895353,  0.895353,  1.803451 )     2.12066772
  WF centre and spread    5  (  0.229686,  0.229686,  0.229686 )     2.46450362
  WF centre and spread    6  (  0.229686, -0.229686, -0.229686 )     2.46450362
  WF centre and spread    7  ( -0.229686,  0.229686, -0.229686 )     2.46450362
  WF centre and spread    8  ( -0.229686, -0.229686,  0.229686 )     2.46450361
  Sum of centres and spreads (  5.397608,  5.397608,  5.397608 )    18.34068537
 
     26    -0.940E-11     0.0000042719       18.3406853746       0.07  <-- CONV
        O_D=      0.1994241 O_OD=      5.5815857 O_TOT=     18.3406854 <-- SPRD
 Delta: O_D=  0.1807235E-07 O_OD= -0.1808175E-07 O_TOT= -0.9400480E-11 <-- DLTA
 ------------------------------------------------------------------------------
 Cycle:     27
  WF centre and spread    1  (  1.803451,  1.803451,  1.803451 )     2.12066714
  WF centre and spread    2  (  1.803451,  0.895352,  0.895352 )     2.12066714
  WF centre and spread    3  (  0.895352,  1.803451,  0.895352 )     2.12066714
  WF centre and spread    4  (  0.895352,  0.895352,  1.803451 )     2.12066714
  WF centre and spread    5  (  0.229686,  0.229686,  0.229686 )     2.46450421
  WF centre and spread    6  (  0.229686, -0.229686, -0.229686 )     2.46450421
  WF centre and spread    7  ( -0.229686,  0.229686, -0.229686 )     2.46450420
  WF centre and spread    8  ( -0.229686, -0.229686,  0.229686 )     2.46450420
  Sum of centres and spreads (  5.397608,  5.397608,  5.397608 )    18.34068537
 
     27    -0.850E-11     0.0000033370       18.3406853745       0.07  <-- CONV
        O_D=      0.1994242 O_OD=      5.5815856 O_TOT=     18.3406854 <-- SPRD
 Delta: O_D=  0.9052358E-07 O_OD= -0.9053208E-07 O_TOT= -0.8501644E-11 <-- DLTA
 ------------------------------------------------------------------------------
 Cycle:     28
  WF centre and spread    1  (  1.803451,  1.803451,  1.803451 )     2.12066708
  WF centre and spread    2  (  1.803451,  0.895352,  0.895352 )     2.12066708
  WF centre and spread    3  (  0.895352,  1.803451,  0.895352 )     2.12066708
  WF centre and spread    4  (  0.895352,  0.895352,  1.803451 )     2.12066708
  WF centre and spread    5  (  0.229686,  0.229686,  0.229686 )     2.46450427
  WF centre and spread    6  (  0.229686, -0.229686, -0.229686 )     2.46450427
  WF centre and spread    7  ( -0.229686,  0.229686, -0.229686 )     2.46450426
  WF centre and spread    8  ( -0.229686, -0.229686,  0.229686 )     2.46450426
  Sum of centres and spreads (  5.397608,  5.397608,  5.397608 )    18.34068537
 
     28    -0.894E-11     0.0000044258       18.3406853745       0.07  <-- CONV
        O_D=      0.1994242 O_OD=      5.5815856 O_TOT=     18.3406854 <-- SPRD
 Delta: O_D=  0.4058589E-08 O_OD= -0.4067526E-08 O_TOT= -0.8938628E-11 <-- DLTA
 ------------------------------------------------------------------------------
 Cycle:     29
  WF centre and spread    1  (  1.803451,  1.803451,  1.803451 )     2.12066704
  WF centre and spread    2  (  1.803451,  0.895352,  0.895352 )     2.12066704
  WF centre and spread    3  (  0.895352,  1.803451,  0.895352 )     2.12066703
  WF centre and spread    4  (  0.895352,  0.895352,  1.803451 )     2.12066703
  WF centre and spread    5  (  0.229686,  0.229686,  0.229686 )     2.46450431
  WF centre and spread    6  (  0.229686, -0.229686, -0.229686 )     2.46450431
  WF centre and spread    7  ( -0.229686,  0.229686, -0.229686 )     2.46450431
  WF centre and spread    8  ( -0.229686, -0.229686,  0.229686 )     2.46450430
  Sum of centres and spreads (  5.397608,  5.397608,  5.397608 )    18.34068537
 
     29    -0.234E-11     0.0000024485       18.3406853745       0.07  <-- CONV
        O_D=      0.1994242 O_OD=      5.5815856 O_TOT=     18.3406854 <-- SPRD
 Delta: O_D=  0.3560597E-08 O_OD= -0.3562938E-08 O_TOT= -0.2337686E-11 <-- DLTA
 ------------------------------------------------------------------------------
 Cycle:     30
  WF centre and spread    1  (  1.803451,  1.803451,  1.803451 )     2.12066703
  WF centre and spread    2  (  1.803451,  0.895352,  0.895352 )     2.12066704
  WF centre and spread    3  (  0.895352,  1.803451,  0.895352 )     2.12066703
  WF centre and spread    4  (  0.895352,  0.895352,  1.803451 )     2.12066703
  WF centre and spread    5  (  0.229686,  0.229686,  0.229686 )     2.46450432
  WF centre and spread    6  (  0.229686, -0.229686, -0.229686 )     2.46450432
  WF centre and spread    7  ( -0.229686,  0.229686, -0.229686 )     2.46450431
  WF centre and spread    8  ( -0.229686, -0.229686,  0.229686 )     2.46450431
  Sum of centres and spreads (  5.397608,  5.397608,  5.397608 )    18.34068537
 
     30    -0.124E-12     0.0000013489       18.3406853745       0.07  <-- CONV
        O_D=      0.1994242 O_OD=      5.5815856 O_TOT=     18.3406854 <-- SPRD
 Delta: O_D=  0.2680450E-09 O_OD= -0.2681668E-09 O_TOT= -0.1243450E-12 <-- DLTA
 ------------------------------------------------------------------------------
 Cycle:     31
  WF centre and spread    1  (  1.803451,  1.803451,  1.803451 )     2.12066702
  WF centre and spread    2  (  1.803451,  0.895352,  0.895352 )     2.12066702
  WF centre and spread    3  (  0.895352,  1.803451,  0.895352 )     2.12066701
  WF centre and spread    4  (  0.895352,  0.895352,  1.803451 )     2.12066701
  WF centre and spread    5  (  0.229686,  0.229686,  0.229686 )     2.46450433
  WF centre and spread    6  (  0.229686, -0.229686, -0.229686 )     2.46450434
  WF centre and spread    7  ( -0.229686,  0.229686, -0.229686 )     2.46450433
  WF centre and spread    8  ( -0.229686, -0.229686,  0.229686 )     2.46450432
  Sum of centres and spreads (  5.397608,  5.397608,  5.397608 )    18.34068537
 
     31    -0.465E-12     0.0000012788       18.3406853745       0.08  <-- CONV
        O_D=      0.1994242 O_OD=      5.5815856 O_TOT=     18.3406854 <-- SPRD
 Delta: O_D=  0.1548045E-08 O_OD= -0.1548511E-08 O_TOT= -0.4654055E-12 <-- DLTA
 ------------------------------------------------------------------------------
 Cycle:     32
  WF centre and spread    1  (  1.803451,  1.803451,  1.803451 )     2.12066701
  WF centre and spread    2  (  1.803451,  0.895352,  0.895352 )     2.12066701
  WF centre and spread    3  (  0.895352,  1.803451,  0.895352 )     2.12066701
  WF centre and spread    4  (  0.895352,  0.895352,  1.803451 )     2.12066701
  WF centre and spread    5  (  0.229686,  0.229686,  0.229686 )     2.46450434
  WF centre and spread    6  (  0.229686, -0.229686, -0.229686 )     2.46450434
  WF centre and spread    7  ( -0.229686,  0.229686, -0.229686 )     2.46450433
  WF centre and spread    8  ( -0.229686, -0.229686,  0.229686 )     2.46450433
  Sum of centres and spreads (  5.397608,  5.397608,  5.397608 )    18.34068537
 
     32    -0.107E-12     0.0000009397       18.3406853745       0.08  <-- CONV
        O_D=      0.1994242 O_OD=      5.5815856 O_TOT=     18.3406854 <-- SPRD
 Delta: O_D=  0.4286451E-09 O_OD= -0.4287504E-09 O_TOT= -0.1065814E-12 <-- DLTA
 ------------------------------------------------------------------------------
 Cycle:     33
  WF centre and spread    1  (  1.803451,  1.803451,  1.803451 )     2.12066699
  WF centre and spread    2  (  1.803451,  0.895352,  0.895352 )     2.12066699
  WF centre and spread    3  (  0.895352,  1.803451,  0.895352 )     2.12066698
  WF centre and spread    4  (  0.895352,  0.895352,  1.803451 )     2.12066698
  WF centre and spread    5  (  0.229686,  0.229686,  0.229686 )     2.46450436
  WF centre and spread    6  (  0.229686, -0.229686, -0.229686 )     2.46450436
  WF centre and spread    7  ( -0.229686,  0.229686, -0.229686 )     2.46450436
  WF centre and spread    8  ( -0.229686, -0.229686,  0.229686 )     2.46450435
  Sum of centres and spreads (  5.397608,  5.397608,  5.397608 )    18.34068537
 
     33    -0.313E-12     0.0000008829       18.3406853745       0.08  <-- CONV
        O_D=      0.1994242 O_OD=      5.5815856 O_TOT=     18.3406854 <-- SPRD
 Delta: O_D=  0.1966222E-08 O_OD= -0.1966537E-08 O_TOT= -0.3126388E-12 <-- DLTA
 ------------------------------------------------------------------------------
 Cycle:     34
  WF centre and spread    1  (  1.803451,  1.803451,  1.803451 )     2.12066699
  WF centre and spread    2  (  1.803451,  0.895352,  0.895352 )     2.12066699
  WF centre and spread    3  (  0.895352,  1.803451,  0.895352 )     2.12066698
  WF centre and spread    4  (  0.895352,  0.895352,  1.803451 )     2.12066698
  WF centre and spread    5  (  0.229686,  0.229686,  0.229686 )     2.46450436
  WF centre and spread    6  (  0.229686, -0.229686, -0.229686 )     2.46450437
  WF centre and spread    7  ( -0.229686,  0.229686, -0.229686 )     2.46450436
  WF centre and spread    8  ( -0.229686, -0.229686,  0.229686 )     2.46450435
  Sum of centres and spreads (  5.397608,  5.397608,  5.397608 )    18.34068537
 
     34    -0.249E-13     0.0000007495       18.3406853745       0.08  <-- CONV
        O_D=      0.1994242 O_OD=      5.5815856 O_TOT=     18.3406854 <-- SPRD
 Delta: O_D=  0.1857355E-09 O_OD= -0.1857599E-09 O_TOT= -0.2486900E-13 <-- DLTA
 ------------------------------------------------------------------------------
 Cycle:     35
  WF centre and spread    1  (  1.803451,  1.803451,  1.803451 )     2.12066698
  WF centre and spread    2  (  1.803451,  0.895352,  0.895352 )     2.12066698
  WF centre and spread    3  (  0.895352,  1.803451,  0.895352 )     2.12066697
  WF centre and spread    4  (  0.895352,  0.895352,  1.803451 )     2.12066697
  WF centre and spread    5  (  0.229686,  0.229686,  0.229686 )     2.46450437
  WF centre and spread    6  (  0.229686, -0.229686, -0.229686 )     2.46450437
  WF centre and spread    7  ( -0.229686,  0.229686, -0.229686 )     2.46450436
  WF centre and spread    8  ( -0.229686, -0.229686,  0.229686 )     2.46450436
  Sum of centres and spreads (  5.397608,  5.397608,  5.397608 )    18.34068537
 
     35    -0.746E-13     0.0000007439       18.3406853745       0.08  <-- CONV
        O_D=      0.1994242 O_OD=      5.5815856 O_TOT=     18.3406854 <-- SPRD
 Delta: O_D=  0.5837797E-09 O_OD= -0.5838547E-09 O_TOT= -0.7460699E-13 <-- DLTA
 ------------------------------------------------------------------------------
 Cycle:     36
  WF centre and spread    1  (  1.803451,  1.803451,  1.803451 )     2.12066694
  WF centre and spread    2  (  1.803451,  0.895352,  0.895352 )     2.12066694
  WF centre and spread    3  (  0.895352,  1.803451,  0.895352 )     2.12066694
  WF centre and spread    4  (  0.895352,  0.895352,  1.803451 )     2.12066694
  WF centre and spread    5  (  0.229686,  0.229686,  0.229686 )     2.46450441
  WF centre and spread    6  (  0.229686, -0.229686, -0.229686 )     2.46450441
  WF centre and spread    7  ( -0.229686,  0.229686, -0.229686 )     2.46450440
  WF centre and spread    8  ( -0.229686, -0.229686,  0.229686 )     2.46450440
  Sum of centres and spreads (  5.397608,  5.397608,  5.397608 )    18.34068537
 
     36    -0.366E-12     0.0000007265       18.3406853745       0.08  <-- CONV
        O_D=      0.1994242 O_OD=      5.5815856 O_TOT=     18.3406854 <-- SPRD
 Delta: O_D=  0.3242340E-08 O_OD= -0.3242707E-08 O_TOT= -0.3659295E-12 <-- DLTA
 ------------------------------------------------------------------------------
 Cycle:     37
  WF centre and spread    1  (  1.803451,  1.803451,  1.803451 )     2.12066693
  WF centre and spread    2  (  1.803451,  0.895352,  0.895352 )     2.12066694
  WF centre and spread    3  (  0.895352,  1.803451,  0.895352 )     2.12066693
  WF centre and spread    4  (  0.895352,  0.895352,  1.803451 )     2.12066693
  WF centre and spread    5  (  0.229686,  0.229686,  0.229686 )     2.46450442
  WF centre and spread    6  (  0.229686, -0.229686, -0.229686 )     2.46450442
  WF centre and spread    7  ( -0.229686,  0.229686, -0.229686 )     2.46450441
  WF centre and spread    8  ( -0.229686, -0.229686,  0.229686 )     2.46450441
  Sum of centres and spreads (  5.397608,  5.397608,  5.397608 )    18.34068537
 
     37    -0.817E-13     0.0000006403       18.3406853745       0.08  <-- CONV
        O_D=      0.1994242 O_OD=      5.5815856 O_TOT=     18.3406854 <-- SPRD
 Delta: O_D=  0.5835010E-09 O_OD= -0.5835830E-09 O_TOT= -0.8171241E-13 <-- DLTA
 ------------------------------------------------------------------------------
 Cycle:     38
  WF centre and spread    1  (  1.803451,  1.803451,  1.803451 )     2.12066692
  WF centre and spread    2  (  1.803451,  0.895352,  0.895352 )     2.12066692
  WF centre and spread    3  (  0.895352,  1.803451,  0.895352 )     2.12066691
  WF centre and spread    4  (  0.895352,  0.895352,  1.803451 )     2.12066691
  WF centre and spread    5  (  0.229686,  0.229686,  0.229686 )     2.46450443
  WF centre and spread    6  (  0.229686, -0.229686, -0.229686 )     2.46450443
  WF centre and spread    7  ( -0.229686,  0.229686, -0.229686 )     2.46450442
  WF centre and spread    8  ( -0.229686, -0.229686,  0.229686 )     2.46450442
  Sum of centres and spreads (  5.397608,  5.397608,  5.397608 )    18.34068537
 
     38    -0.924E-13     0.0000006270       18.3406853745       0.08  <-- CONV
        O_D=      0.1994242 O_OD=      5.5815856 O_TOT=     18.3406854 <-- SPRD
 Delta: O_D=  0.1094958E-08 O_OD= -0.1095051E-08 O_TOT= -0.9237056E-13 <-- DLTA
 ------------------------------------------------------------------------------
 Cycle:     39
  WF centre and spread    1  (  1.803451,  1.803451,  1.803451 )     2.12066691
  WF centre and spread    2  (  1.803451,  0.895352,  0.895352 )     2.12066691
  WF centre and spread    3  (  0.895352,  1.803451,  0.895352 )     2.12066690
  WF centre and spread    4  (  0.895352,  0.895352,  1.803451 )     2.12066690
  WF centre and spread    5  (  0.229686,  0.229686,  0.229686 )     2.46450444
  WF centre and spread    6  (  0.229686, -0.229686, -0.229686 )     2.46450444
  WF centre and spread    7  ( -0.229686,  0.229686, -0.229686 )     2.46450443
  WF centre and spread    8  ( -0.229686, -0.229686,  0.229686 )     2.46450443
  Sum of centres and spreads (  5.397608,  5.397608,  5.397608 )    18.34068537
 
     39    -0.782E-13     0.0000006033       18.3406853745       0.08  <-- CONV
        O_D=      0.1994242 O_OD=      5.5815856 O_TOT=     18.3406854 <-- SPRD
 Delta: O_D=  0.8340409E-09 O_OD= -0.8341203E-09 O_TOT= -0.7815970E-13 <-- DLTA
 ------------------------------------------------------------------------------
 Cycle:     40
  WF centre and spread    1  (  1.803451,  1.803451,  1.803451 )     2.12066691
  WF centre and spread    2  (  1.803451,  0.895352,  0.895352 )     2.12066691
  WF centre and spread    3  (  0.895352,  1.803451,  0.895352 )     2.12066690
  WF centre and spread    4  (  0.895352,  0.895352,  1.803451 )     2.12066690
  WF centre and spread    5  (  0.229686,  0.229686,  0.229686 )     2.46450444
  WF centre and spread    6  (  0.229686, -0.229686, -0.229686 )     2.46450444
  WF centre and spread    7  ( -0.229686,  0.229686, -0.229686 )     2.46450444
  WF centre and spread    8  ( -0.229686, -0.229686,  0.229686 )     2.46450443
  Sum of centres and spreads (  5.397608,  5.397608,  5.397608 )    18.34068537
 
     40    -0.142E-13     0.0000005861       18.3406853745       0.08  <-- CONV
        O_D=      0.1994242 O_OD=      5.5815856 O_TOT=     18.3406854 <-- SPRD
 Delta: O_D=  0.1580882E-09 O_OD= -0.1580984E-09 O_TOT= -0.1421085E-13 <-- DLTA
 ------------------------------------------------------------------------------
 Cycle:     41
  WF centre and spread    1  (  1.803451,  1.803451,  1.803451 )     2.12066690
  WF centre and spread    2  (  1.803451,  0.895352,  0.895352 )     2.12066691
  WF centre and spread    3  (  0.895352,  1.803451,  0.895352 )     2.12066690
  WF centre and spread    4  (  0.895352,  0.895352,  1.803451 )     2.12066690
  WF centre and spread    5  (  0.229686,  0.229686,  0.229686 )     2.46450445
  WF centre and spread    6  (  0.229686, -0.229686, -0.229686 )     2.46450445
  WF centre and spread    7  ( -0.229686,  0.229686, -0.229686 )     2.46450444
  WF centre and spread    8  ( -0.229686, -0.229686,  0.229686 )     2.46450444
  Sum of centres and spreads (  5.397608,  5.397608,  5.397608 )    18.34068537
 
     41    -0.355E-13     0.0000005829       18.3406853745       0.08  <-- CONV
        O_D=      0.1994242 O_OD=      5.5815856 O_TOT=     18.3406854 <-- SPRD
 Delta: O_D=  0.3137230E-09 O_OD= -0.3137606E-09 O_TOT= -0.3552714E-13 <-- DLTA
 ------------------------------------------------------------------------------
 Cycle:     42
  WF centre and spread    1  (  1.803451,  1.803451,  1.803451 )     2.12066689
  WF centre and spread    2  (  1.803451,  0.895352,  0.895352 )     2.12066689
  WF centre and spread    3  (  0.895352,  1.803451,  0.895352 )     2.12066689
  WF centre and spread    4  (  0.895352,  0.895352,  1.803451 )     2.12066689
  WF centre and spread    5  (  0.229686,  0.229686,  0.229686 )     2.46450446
  WF centre and spread    6  (  0.229686, -0.229686, -0.229686 )     2.46450446
  WF centre and spread    7  ( -0.229686,  0.229686, -0.229686 )     2.46450445
  WF centre and spread    8  ( -0.229686, -0.229686,  0.229686 )     2.46450445
  Sum of centres and spreads (  5.397608,  5.397608,  5.397608 )    18.34068537
 
     42    -0.746E-13     0.0000005768       18.3406853745       0.08  <-- CONV
        O_D=      0.1994242 O_OD=      5.5815856 O_TOT=     18.3406854 <-- SPRD
 Delta: O_D=  0.9784510E-09 O_OD= -0.9785266E-09 O_TOT= -0.7460699E-13 <-- DLTA
 ------------------------------------------------------------------------------
 Cycle:     43
  WF centre and spread    1  (  1.803451,  1.803451,  1.803451 )     2.12066688
  WF centre and spread    2  (  1.803451,  0.895352,  0.895352 )     2.12066689
  WF centre and spread    3  (  0.895352,  1.803451,  0.895352 )     2.12066688
  WF centre and spread    4  (  0.895352,  0.895352,  1.803451 )     2.12066688
  WF centre and spread    5  (  0.229686,  0.229686,  0.229686 )     2.46450446
  WF centre and spread    6  (  0.229686, -0.229686, -0.229686 )     2.46450447
  WF centre and spread    7  ( -0.229686,  0.229686, -0.229686 )     2.46450446
  WF centre and spread    8  ( -0.229686, -0.229686,  0.229686 )     2.46450446
  Sum of centres and spreads (  5.397608,  5.397608,  5.397608 )    18.34068537
 
     43    -0.604E-13     0.0000005578       18.3406853745       0.09  <-- CONV
        O_D=      0.1994242 O_OD=      5.5815856 O_TOT=     18.3406854 <-- SPRD
 Delta: O_D=  0.5840608E-09 O_OD= -0.5841221E-09 O_TOT= -0.6039613E-13 <-- DLTA
 ------------------------------------------------------------------------------
 Cycle:     44
  WF centre and spread    1  (  1.803451,  1.803451,  1.803451 )     2.12066688
  WF centre and spread    2  (  1.803451,  0.895352,  0.895352 )     2.12066688
  WF centre and spread    3  (  0.895352,  1.803451,  0.895352 )     2.12066687
  WF centre and spread    4  (  0.895352,  0.895352,  1.803451 )     2.12066687
  WF centre and spread    5  (  0.229686,  0.229686,  0.229686 )     2.46450447
  WF centre and spread    6  (  0.229686, -0.229686, -0.229686 )     2.46450448
  WF centre and spread    7  ( -0.229686,  0.229686, -0.229686 )     2.46450447
  WF centre and spread    8  ( -0.229686, -0.229686,  0.229686 )     2.46450446
  Sum of centres and spreads (  5.397608,  5.397608,  5.397608 )    18.34068537
 
     44    -0.568E-13     0.0000005467       18.3406853745       0.09  <-- CONV
        O_D=      0.1994242 O_OD=      5.5815856 O_TOT=     18.3406854 <-- SPRD
 Delta: O_D=  0.7094411E-09 O_OD= -0.7094956E-09 O_TOT= -0.5684342E-13 <-- DLTA
 ------------------------------------------------------------------------------
 Cycle:     45
  WF centre and spread    1  (  1.803451,  1.803451,  1.803451 )     2.12066679
  WF centre and spread    2  (  1.803451,  0.895352,  0.895352 )     2.12066680
  WF centre and spread    3  (  0.895352,  1.803451,  0.895352 )     2.12066679
  WF centre and spread    4  (  0.895352,  0.895352,  1.803451 )     2.12066679
  WF centre and spread    5  (  0.229686,  0.229686,  0.229686 )     2.46450455
  WF centre and spread    6  (  0.229686, -0.229686, -0.229686 )     2.46450456
  WF centre and spread    7  ( -0.229686,  0.229686, -0.229686 )     2.46450455
  WF centre and spread    8  ( -0.229686, -0.229686,  0.229686 )     2.46450454
  Sum of centres and spreads (  5.397608,  5.397608,  5.397608 )    18.34068537
 
     45    -0.458E-12     0.0000005336       18.3406853745       0.09  <-- CONV
        O_D=      0.1994242 O_OD=      5.5815856 O_TOT=     18.3406854 <-- SPRD
 Delta: O_D=  0.6270569E-08 O_OD= -0.6271027E-08 O_TOT= -0.4583001E-12 <-- DLTA
 ------------------------------------------------------------------------------
 Cycle:     46
  WF centre and spread    1  (  1.803451,  1.803451,  1.803451 )     2.12066679
  WF centre and spread    2  (  1.803451,  0.895352,  0.895352 )     2.12066679
  WF centre and spread    3  (  0.895352,  1.803451,  0.895352 )     2.12066679
  WF centre and spread    4  (  0.895352,  0.895352,  1.803451 )     2.12066679
  WF centre and spread    5  (  0.229686,  0.229686,  0.229686 )     2.46450456
  WF centre and spread    6  (  0.229686, -0.229686, -0.229686 )     2.46450456
  WF centre and spread    7  ( -0.229686,  0.229686, -0.229686 )     2.46450455
  WF centre and spread    8  ( -0.229686, -0.229686,  0.229686 )     2.46450455
  Sum of centres and spreads (  5.397608,  5.397608,  5.397608 )    18.34068537
 
     46    -0.213E-13     0.0000004273       18.3406853745       0.09  <-- CONV
        O_D=      0.1994242 O_OD=      5.5815856 O_TOT=     18.3406854 <-- SPRD
 Delta: O_D=  0.1143431E-09 O_OD= -0.1143654E-09 O_TOT= -0.2131628E-13 <-- DLTA
 ------------------------------------------------------------------------------
 Cycle:     47
  WF centre and spread    1  (  1.803451,  1.803451,  1.803451 )     2.12066679
  WF centre and spread    2  (  1.803451,  0.895352,  0.895352 )     2.12066679
  WF centre and spread    3  (  0.895352,  1.803451,  0.895352 )     2.12066678
  WF centre and spread    4  (  0.895352,  0.895352,  1.803451 )     2.12066678
  WF centre and spread    5  (  0.229686,  0.229686,  0.229686 )     2.46450456
  WF centre and spread    6  (  0.229686, -0.229686, -0.229686 )     2.46450456
  WF centre and spread    7  ( -0.229686,  0.229686, -0.229686 )     2.46450455
  WF centre and spread    8  ( -0.229686, -0.229686,  0.229686 )     2.46450455
  Sum of centres and spreads (  5.397608,  5.397608,  5.397608 )    18.34068537
 
     47    -0.178E-13     0.0000004253       18.3406853745       0.09  <-- CONV
        O_D=      0.1994242 O_OD=      5.5815856 O_TOT=     18.3406854 <-- SPRD
 Delta: O_D=  0.2269638E-09 O_OD= -0.2269829E-09 O_TOT= -0.1776357E-13 <-- DLTA
 ------------------------------------------------------------------------------
 Cycle:     48
  WF centre and spread    1  (  1.803451,  1.803451,  1.803451 )     2.12066678
  WF centre and spread    2  (  1.803451,  0.895352,  0.895352 )     2.12066678
  WF centre and spread    3  (  0.895352,  1.803451,  0.895352 )     2.12066678
  WF centre and spread    4  (  0.895352,  0.895352,  1.803451 )     2.12066678
  WF centre and spread    5  (  0.229686,  0.229686,  0.229686 )     2.46450457
  WF centre and spread    6  (  0.229686, -0.229686, -0.229686 )     2.46450457
  WF centre and spread    7  ( -0.229686,  0.229686, -0.229686 )     2.46450456
  WF centre and spread    8  ( -0.229686, -0.229686,  0.229686 )     2.46450456
  Sum of centres and spreads (  5.397608,  5.397608,  5.397608 )    18.34068537
 
     48    -0.355E-13     0.0000004212       18.3406853745       0.09  <-- CONV
        O_D=      0.1994242 O_OD=      5.5815856 O_TOT=     18.3406854 <-- SPRD
 Delta: O_D=  0.4600044E-09 O_OD= -0.4600365E-09 O_TOT= -0.3552714E-13 <-- DLTA
 ------------------------------------------------------------------------------
 Cycle:     49
  WF centre and spread    1  (  1.803451,  1.803451,  1.803451 )     2.12066678
  WF centre and spread    2  (  1.803451,  0.895352,  0.895352 )     2.12066678
  WF centre and spread    3  (  0.895352,  1.803451,  0.895352 )     2.12066677
  WF centre and spread    4  (  0.895352,  0.895352,  1.803451 )     2.12066677
  WF centre and spread    5  (  0.229686,  0.229686,  0.229686 )     2.46450457
  WF centre and spread    6  (  0.229686, -0.229686, -0.229686 )     2.46450457
  WF centre and spread    7  ( -0.229686,  0.229686, -0.229686 )     2.46450457
  WF centre and spread    8  ( -0.229686, -0.229686,  0.229686 )     2.46450456
  Sum of centres and spreads (  5.397608,  5.397608,  5.397608 )    18.34068537
 
     49    -0.142E-13     0.0000004132       18.3406853745       0.09  <-- CONV
        O_D=      0.1994242 O_OD=      5.5815856 O_TOT=     18.3406854 <-- SPRD
 Delta: O_D=  0.4341046E-09 O_OD= -0.4341176E-09 O_TOT= -0.1421085E-13 <-- DLTA
 ------------------------------------------------------------------------------
 Cycle:     50
  WF centre and spread    1  (  1.803451,  1.803451,  1.803451 )     2.12066677
  WF centre and spread    2  (  1.803451,  0.895352,  0.895352 )     2.12066677
  WF centre and spread    3  (  0.895352,  1.803451,  0.895352 )     2.12066676
  WF centre and spread    4  (  0.895352,  0.895352,  1.803451 )     2.12066676
  WF centre and spread    5  (  0.229686,  0.229686,  0.229686 )     2.46450458
  WF centre and spread    6  (  0.229686, -0.229686, -0.229686 )     2.46450458
  WF centre and spread    7  ( -0.229686,  0.229686, -0.229686 )     2.46450457
  WF centre and spread    8  ( -0.229686, -0.229686,  0.229686 )     2.46450457
  Sum of centres and spreads (  5.397608,  5.397608,  5.397608 )    18.34068537
 
     50    -0.320E-13     0.0000004060       18.3406853745       0.09  <-- CONV
        O_D=      0.1994242 O_OD=      5.5815856 O_TOT=     18.3406854 <-- SPRD
 Delta: O_D=  0.5254844E-09 O_OD= -0.5255192E-09 O_TOT= -0.3197442E-13 <-- DLTA
 ------------------------------------------------------------------------------
 Cycle:     51
  WF centre and spread    1  (  1.803451,  1.803451,  1.803451 )     2.12066676
  WF centre and spread    2  (  1.803451,  0.895352,  0.895352 )     2.12066676
  WF centre and spread    3  (  0.895352,  1.803451,  0.895352 )     2.12066675
  WF centre and spread    4  (  0.895352,  0.895352,  1.803451 )     2.12066675
  WF centre and spread    5  (  0.229686,  0.229686,  0.229686 )     2.46450459
  WF centre and spread    6  (  0.229686, -0.229686, -0.229686 )     2.46450460
[...]
  WF centre and spread    3  (  0.895352,  1.803451,  0.895352 )     2.12066661
  WF centre and spread    4  (  0.895352,  0.895352,  1.803451 )     2.12066661
  WF centre and spread    5  (  0.229686,  0.229686,  0.229686 )     2.46450474
  WF centre and spread    6  (  0.229686, -0.229686, -0.229686 )     2.46450474
  WF centre and spread    7  ( -0.229686,  0.229686, -0.229686 )     2.46450473
  WF centre and spread    8  ( -0.229686, -0.229686,  0.229686 )     2.46450473
  Sum of centres and spreads (  5.397608,  5.397608,  5.397608 )    18.34068537
 
     85    -0.355E-14     0.0000002571       18.3406853745       0.12  <-- CONV
        O_D=      0.1994242 O_OD=      5.5815856 O_TOT=     18.3406854 <-- SPRD
 Delta: O_D=  0.1092373E-09 O_OD= -0.1092415E-09 O_TOT= -0.3552714E-14 <-- DLTA
 ------------------------------------------------------------------------------
 Cycle:     86
  WF centre and spread    1  (  1.803451,  1.803451,  1.803451 )     2.12066661
  WF centre and spread    2  (  1.803451,  0.895352,  0.895352 )     2.12066661
  WF centre and spread    3  (  0.895352,  1.803451,  0.895352 )     2.12066660
  WF centre and spread    4  (  0.895352,  0.895352,  1.803451 )     2.12066660
  WF centre and spread    5  (  0.229686,  0.229686,  0.229686 )     2.46450474
  WF centre and spread    6  (  0.229686, -0.229686, -0.229686 )     2.46450475
  WF centre and spread    7  ( -0.229686,  0.229686, -0.229686 )     2.46450474
  WF centre and spread    8  ( -0.229686, -0.229686,  0.229686 )     2.46450473
  Sum of centres and spreads (  5.397608,  5.397608,  5.397608 )    18.34068537
 
     86    -0.107E-13     0.0000002554       18.3406853745       0.12  <-- CONV
        O_D=      0.1994242 O_OD=      5.5815856 O_TOT=     18.3406854 <-- SPRD
 Delta: O_D=  0.2699265E-09 O_OD= -0.2699370E-09 O_TOT= -0.1065814E-13 <-- DLTA
 ------------------------------------------------------------------------------
 Cycle:     87
  WF centre and spread    1  (  1.803451,  1.803451,  1.803451 )     2.12066660
  WF centre and spread    2  (  1.803451,  0.895352,  0.895352 )     2.12066660
  WF centre and spread    3  (  0.895352,  1.803451,  0.895352 )     2.12066659
  WF centre and spread    4  (  0.895352,  0.895352,  1.803451 )     2.12066659
  WF centre and spread    5  (  0.229686,  0.229686,  0.229686 )     2.46450475
  WF centre and spread    6  (  0.229686, -0.229686, -0.229686 )     2.46450475
  WF centre and spread    7  ( -0.229686,  0.229686, -0.229686 )     2.46450474
  WF centre and spread    8  ( -0.229686, -0.229686,  0.229686 )     2.46450474
  Sum of centres and spreads (  5.397608,  5.397608,  5.397608 )    18.34068537
 
     87    -0.142E-13     0.0000002513       18.3406853745       0.12  <-- CONV
        O_D=      0.1994242 O_OD=      5.5815856 O_TOT=     18.3406854 <-- SPRD
 Delta: O_D=  0.3140942E-09 O_OD= -0.3141105E-09 O_TOT= -0.1421085E-13 <-- DLTA
 ------------------------------------------------------------------------------
 Cycle:     88
  WF centre and spread    1  (  1.803451,  1.803451,  1.803451 )     2.12066660
  WF centre and spread    2  (  1.803451,  0.895352,  0.895352 )     2.12066660
  WF centre and spread    3  (  0.895352,  1.803451,  0.895352 )     2.12066659
  WF centre and spread    4  (  0.895352,  0.895352,  1.803451 )     2.12066659
  WF centre and spread    5  (  0.229686,  0.229686,  0.229686 )     2.46450475
  WF centre and spread    6  (  0.229686, -0.229686, -0.229686 )     2.46450475
  WF centre and spread    7  ( -0.229686,  0.229686, -0.229686 )     2.46450474
  WF centre and spread    8  ( -0.229686, -0.229686,  0.229686 )     2.46450474
  Sum of centres and spreads (  5.397608,  5.397608,  5.397608 )    18.34068537
 
     88     0.178E-13     0.0000002464       18.3406853745       0.12  <-- CONV
        O_D=      0.1994242 O_OD=      5.5815856 O_TOT=     18.3406854 <-- SPRD
 Delta: O_D=  0.6807638E-11 O_OD= -0.6789236E-11 O_TOT=  0.1776357E-13 <-- DLTA
 ------------------------------------------------------------------------------
 Cycle:     89
  WF centre and spread    1  (  1.803451,  1.803451,  1.803451 )     2.12066660
  WF centre and spread    2  (  1.803451,  0.895352,  0.895352 )     2.12066660
  WF centre and spread    3  (  0.895352,  1.803451,  0.895352 )     2.12066659
  WF centre and spread    4  (  0.895352,  0.895352,  1.803451 )     2.12066659
  WF centre and spread    5  (  0.229686,  0.229686,  0.229686 )     2.46450475
  WF centre and spread    6  (  0.229686, -0.229686, -0.229686 )     2.46450475
  WF centre and spread    7  ( -0.229686,  0.229686, -0.229686 )     2.46450475
  WF centre and spread    8  ( -0.229686, -0.229686,  0.229686 )     2.46450474
  Sum of centres and spreads (  5.397608,  5.397608,  5.397608 )    18.34068537
 
     89    -0.142E-13     0.0000002463       18.3406853745       0.12  <-- CONV
        O_D=      0.1994242 O_OD=      5.5815856 O_TOT=     18.3406854 <-- SPRD
 Delta: O_D=  0.1023989E-09 O_OD= -0.1024114E-09 O_TOT= -0.1421085E-13 <-- DLTA
 ------------------------------------------------------------------------------
 Cycle:     90
  WF centre and spread    1  (  1.803451,  1.803451,  1.803451 )     2.12066659
  WF centre and spread    2  (  1.803451,  0.895352,  0.895352 )     2.12066660
  WF centre and spread    3  (  0.895352,  1.803451,  0.895352 )     2.12066659
  WF centre and spread    4  (  0.895352,  0.895352,  1.803451 )     2.12066659
  WF centre and spread    5  (  0.229686,  0.229686,  0.229686 )     2.46450476
  WF centre and spread    6  (  0.229686, -0.229686, -0.229686 )     2.46450476
  WF centre and spread    7  ( -0.229686,  0.229686, -0.229686 )     2.46450475
  WF centre and spread    8  ( -0.229686, -0.229686,  0.229686 )     2.46450475
  Sum of centres and spreads (  5.397608,  5.397608,  5.397608 )    18.34068537
 
     90    -0.320E-13     0.0000002447       18.3406853745       0.12  <-- CONV
        O_D=      0.1994242 O_OD=      5.5815856 O_TOT=     18.3406854 <-- SPRD
 Delta: O_D=  0.1517423E-09 O_OD= -0.1517755E-09 O_TOT= -0.3197442E-13 <-- DLTA
 ------------------------------------------------------------------------------
 Cycle:     91
  WF centre and spread    1  (  1.803451,  1.803451,  1.803451 )     2.12066659
  WF centre and spread    2  (  1.803451,  0.895352,  0.895352 )     2.12066659
  WF centre and spread    3  (  0.895352,  1.803451,  0.895352 )     2.12066659
  WF centre and spread    4  (  0.895352,  0.895352,  1.803451 )     2.12066659
  WF centre and spread    5  (  0.229686,  0.229686,  0.229686 )     2.46450476
  WF centre and spread    6  (  0.229686, -0.229686, -0.229686 )     2.46450476
  WF centre and spread    7  ( -0.229686,  0.229686, -0.229686 )     2.46450475
  WF centre and spread    8  ( -0.229686, -0.229686,  0.229686 )     2.46450475
  Sum of centres and spreads (  5.397608,  5.397608,  5.397608 )    18.34068537
 
     91     0.711E-14     0.0000002423       18.3406853745       0.13  <-- CONV
        O_D=      0.1994242 O_OD=      5.5815856 O_TOT=     18.3406854 <-- SPRD
 Delta: O_D=  0.1554660E-09 O_OD= -0.1554605E-09 O_TOT=  0.7105427E-14 <-- DLTA
 ------------------------------------------------------------------------------
 Cycle:     92
  WF centre and spread    1  (  1.803451,  1.803451,  1.803451 )     2.12066659
  WF centre and spread    2  (  1.803451,  0.895352,  0.895352 )     2.12066659
  WF centre and spread    3  (  0.895352,  1.803451,  0.895352 )     2.12066658
  WF centre and spread    4  (  0.895352,  0.895352,  1.803451 )     2.12066658
  WF centre and spread    5  (  0.229686,  0.229686,  0.229686 )     2.46450476
  WF centre and spread    6  (  0.229686, -0.229686, -0.229686 )     2.46450477
  WF centre and spread    7  ( -0.229686,  0.229686, -0.229686 )     2.46450476
  WF centre and spread    8  ( -0.229686, -0.229686,  0.229686 )     2.46450475
  Sum of centres and spreads (  5.397608,  5.397608,  5.397608 )    18.34068537
 
     92    -0.142E-13     0.0000002399       18.3406853745       0.13  <-- CONV
        O_D=      0.1994242 O_OD=      5.5815856 O_TOT=     18.3406854 <-- SPRD
 Delta: O_D=  0.2438060E-09 O_OD= -0.2438174E-09 O_TOT= -0.1421085E-13 <-- DLTA
 ------------------------------------------------------------------------------
 Cycle:     93
  WF centre and spread    1  (  1.803451,  1.803451,  1.803451 )     2.12066658
  WF centre and spread    2  (  1.803451,  0.895352,  0.895352 )     2.12066658
  WF centre and spread    3  (  0.895352,  1.803451,  0.895352 )     2.12066657
  WF centre and spread    4  (  0.895352,  0.895352,  1.803451 )     2.12066657
  WF centre and spread    5  (  0.229686,  0.229686,  0.229686 )     2.46450477
  WF centre and spread    6  (  0.229686, -0.229686, -0.229686 )     2.46450477
  WF centre and spread    7  ( -0.229686,  0.229686, -0.229686 )     2.46450476
  WF centre and spread    8  ( -0.229686, -0.229686,  0.229686 )     2.46450476
  Sum of centres and spreads (  5.397608,  5.397608,  5.397608 )    18.34068537
 
     93    -0.142E-13     0.0000002361       18.3406853745       0.13  <-- CONV
        O_D=      0.1994242 O_OD=      5.5815856 O_TOT=     18.3406854 <-- SPRD
 Delta: O_D=  0.2839381E-09 O_OD= -0.2839542E-09 O_TOT= -0.1421085E-13 <-- DLTA
 ------------------------------------------------------------------------------
 Cycle:     94
  WF centre and spread    1  (  1.803451,  1.803451,  1.803451 )     2.12066658
  WF centre and spread    2  (  1.803451,  0.895352,  0.895352 )     2.12066658
  WF centre and spread    3  (  0.895352,  1.803451,  0.895352 )     2.12066657
  WF centre and spread    4  (  0.895352,  0.895352,  1.803451 )     2.12066657
  WF centre and spread    5  (  0.229686,  0.229686,  0.229686 )     2.46450477
  WF centre and spread    6  (  0.229686, -0.229686, -0.229686 )     2.46450477
  WF centre and spread    7  ( -0.229686,  0.229686, -0.229686 )     2.46450476
  WF centre and spread    8  ( -0.229686, -0.229686,  0.229686 )     2.46450476
  Sum of centres and spreads (  5.397608,  5.397608,  5.397608 )    18.34068537
 
     94    -0.355E-14     0.0000002317       18.3406853745       0.13  <-- CONV
        O_D=      0.1994242 O_OD=      5.5815856 O_TOT=     18.3406854 <-- SPRD
 Delta: O_D=  0.4632730E-10 O_OD= -0.4633094E-10 O_TOT= -0.3552714E-14 <-- DLTA
 ------------------------------------------------------------------------------
 Cycle:     95
  WF centre and spread    1  (  1.803451,  1.803451,  1.803451 )     2.12066658
  WF centre and spread    2  (  1.803451,  0.895352,  0.895352 )     2.12066658
  WF centre and spread    3  (  0.895352,  1.803451,  0.895352 )     2.12066657
  WF centre and spread    4  (  0.895352,  0.895352,  1.803451 )     2.12066657
  WF centre and spread    5  (  0.229686,  0.229686,  0.229686 )     2.46450477
  WF centre and spread    6  (  0.229686, -0.229686, -0.229686 )     2.46450477
  WF centre and spread    7  ( -0.229686,  0.229686, -0.229686 )     2.46450477
  WF centre and spread    8  ( -0.229686, -0.229686,  0.229686 )     2.46450476
  Sum of centres and spreads (  5.397608,  5.397608,  5.397608 )    18.34068537
 
     95     0.355E-14     0.0000002309       18.3406853745       0.13  <-- CONV
        O_D=      0.1994242 O_OD=      5.5815856 O_TOT=     18.3406854 <-- SPRD
 Delta: O_D=  0.4606124E-10 O_OD= -0.4605916E-10 O_TOT=  0.3552714E-14 <-- DLTA
 ------------------------------------------------------------------------------
 Cycle:     96
  WF centre and spread    1  (  1.803451,  1.803451,  1.803451 )     2.12066657
  WF centre and spread    2  (  1.803451,  0.895352,  0.895352 )     2.12066658
  WF centre and spread    3  (  0.895352,  1.803451,  0.895352 )     2.12066657
  WF centre and spread    4  (  0.895352,  0.895352,  1.803451 )     2.12066657
  WF centre and spread    5  (  0.229686,  0.229686,  0.229686 )     2.46450477
  WF centre and spread    6  (  0.229686, -0.229686, -0.229686 )     2.46450478
  WF centre and spread    7  ( -0.229686,  0.229686, -0.229686 )     2.46450477
  WF centre and spread    8  ( -0.229686, -0.229686,  0.229686 )     2.46450476
  Sum of centres and spreads (  5.397608,  5.397608,  5.397608 )    18.34068537
 
     96    -0.284E-13     0.0000002302       18.3406853745       0.13  <-- CONV
        O_D=      0.1994242 O_OD=      5.5815856 O_TOT=     18.3406854 <-- SPRD
 Delta: O_D=  0.1373908E-09 O_OD= -0.1374172E-09 O_TOT= -0.2842171E-13 <-- DLTA
 ------------------------------------------------------------------------------
 Cycle:     97
  WF centre and spread    1  (  1.803451,  1.803451,  1.803451 )     2.12066657
  WF centre and spread    2  (  1.803451,  0.895352,  0.895352 )     2.12066658
  WF centre and spread    3  (  0.895352,  1.803451,  0.895352 )     2.12066657
  WF centre and spread    4  (  0.895352,  0.895352,  1.803451 )     2.12066657
  WF centre and spread    5  (  0.229686,  0.229686,  0.229686 )     2.46450478
  WF centre and spread    6  (  0.229686, -0.229686, -0.229686 )     2.46450478
  WF centre and spread    7  ( -0.229686,  0.229686, -0.229686 )     2.46450477
  WF centre and spread    8  ( -0.229686, -0.229686,  0.229686 )     2.46450476
  Sum of centres and spreads (  5.397608,  5.397608,  5.397608 )    18.34068537
 
     97     0.142E-13     0.0000002280       18.3406853745       0.13  <-- CONV
        O_D=      0.1994242 O_OD=      5.5815856 O_TOT=     18.3406854 <-- SPRD
 Delta: O_D=  0.3422498E-10 O_OD= -0.3420908E-10 O_TOT=  0.1421085E-13 <-- DLTA
 ------------------------------------------------------------------------------
 Cycle:     98
  WF centre and spread    1  (  1.803451,  1.803451,  1.803451 )     2.12066657
  WF centre and spread    2  (  1.803451,  0.895352,  0.895352 )     2.12066657
  WF centre and spread    3  (  0.895352,  1.803451,  0.895352 )     2.12066657
  WF centre and spread    4  (  0.895352,  0.895352,  1.803451 )     2.12066657
  WF centre and spread    5  (  0.229686,  0.229686,  0.229686 )     2.46450478
  WF centre and spread    6  (  0.229686, -0.229686, -0.229686 )     2.46450478
  WF centre and spread    7  ( -0.229686,  0.229686, -0.229686 )     2.46450477
  WF centre and spread    8  ( -0.229686, -0.229686,  0.229686 )     2.46450477
  Sum of centres and spreads (  5.397608,  5.397608,  5.397608 )    18.34068537
 
     98     0.000E+00     0.0000002275       18.3406853745       0.13  <-- CONV
        O_D=      0.1994242 O_OD=      5.5815856 O_TOT=     18.3406854 <-- SPRD
 Delta: O_D=  0.1120274E-09 O_OD= -0.1120286E-09 O_TOT=  0.0000000E+00 <-- DLTA
 ------------------------------------------------------------------------------
 Cycle:     99
  WF centre and spread    1  (  1.803451,  1.803451,  1.803451 )     2.12066657
  WF centre and spread    2  (  1.803451,  0.895352,  0.895352 )     2.12066657
  WF centre and spread    3  (  0.895352,  1.803451,  0.895352 )     2.12066656
  WF centre and spread    4  (  0.895352,  0.895352,  1.803451 )     2.12066656
  WF centre and spread    5  (  0.229686,  0.229686,  0.229686 )     2.46450478
  WF centre and spread    6  (  0.229686, -0.229686, -0.229686 )     2.46450479
  WF centre and spread    7  ( -0.229686,  0.229686, -0.229686 )     2.46450478
  WF centre and spread    8  ( -0.229686, -0.229686,  0.229686 )     2.46450477
  Sum of centres and spreads (  5.397608,  5.397608,  5.397608 )    18.34068537
 
     99    -0.711E-14     0.0000002257       18.3406853745       0.13  <-- CONV
        O_D=      0.1994242 O_OD=      5.5815856 O_TOT=     18.3406854 <-- SPRD
 Delta: O_D=  0.2989951E-09 O_OD= -0.2990017E-09 O_TOT= -0.7105427E-14 <-- DLTA
 ------------------------------------------------------------------------------
 Cycle:    100
  WF centre and spread    1  (  1.803451,  1.803451,  1.803451 )     2.12066656
  WF centre and spread    2  (  1.803451,  0.895352,  0.895352 )     2.12066657
  WF centre and spread    3  (  0.895352,  1.803451,  0.895352 )     2.12066656
  WF centre and spread    4  (  0.895352,  0.895352,  1.803451 )     2.12066656
  WF centre and spread    5  (  0.229686,  0.229686,  0.229686 )     2.46450479
  WF centre and spread    6  (  0.229686, -0.229686, -0.229686 )     2.46450479
  WF centre and spread    7  ( -0.229686,  0.229686, -0.229686 )     2.46450478
  WF centre and spread    8  ( -0.229686, -0.229686,  0.229686 )     2.46450477
  Sum of centres and spreads (  5.397608,  5.397608,  5.397608 )    18.34068537
 
    100    -0.213E-13     0.0000002210       18.3406853745       0.13  <-- CONV
        O_D=      0.1994242 O_OD=      5.5815856 O_TOT=     18.3406854 <-- SPRD
 Delta: O_D=  0.4285411E-10 O_OD= -0.4287593E-10 O_TOT= -0.2131628E-13 <-- DLTA
 ------------------------------------------------------------------------------

 Writing checkpoint file silicon.chk... done

 Final State
  WF centre and spread    1  (  1.803451,  1.803451,  1.803451 )     2.12066656
  WF centre and spread    2  (  1.803451,  0.895352,  0.895352 )     2.12066657
  WF centre and spread    3  (  0.895352,  1.803451,  0.895352 )     2.12066656
  WF centre and spread    4  (  0.895352,  0.895352,  1.803451 )     2.12066656
  WF centre and spread    5  (  0.229686,  0.229686,  0.229686 )     2.46450479
  WF centre and spread    6  (  0.229686, -0.229686, -0.229686 )     2.46450479
  WF centre and spread    7  ( -0.229686,  0.229686, -0.229686 )     2.46450478
  WF centre and spread    8  ( -0.229686, -0.229686,  0.229686 )     2.46450477
  Sum of centres and spreads (  5.397608,  5.397608,  5.397608 )    18.34068537
 
         Spreads (Ang^2)       Omega I      =    12.559675551
        ================       Omega D      =     0.199424230
                               Omega OD     =     5.581585593
    Final Spread (Ang^2)       Omega Total  =    18.340685375
 ------------------------------------------------------------------------------
 Time for wannierise            0.093 (sec)

 Writing checkpoint file silicon.chk... done

 *---------------------------------------------------------------------------*
 |                               PLOTTING                                    |
 *---------------------------------------------------------------------------*
 
 
 Calculating interpolated band-structure
 
 Time to calculate interpolated band structure       0.146 (sec)
 
      Wannier Function Num:    1       Maximum Im/Re Ratio =    0.000001
      Wannier Function Num:    2       Maximum Im/Re Ratio =    0.000001
      Wannier Function Num:    3       Maximum Im/Re Ratio =    0.000001
      Wannier Function Num:    4       Maximum Im/Re Ratio =    0.000001
      Wannier Function Num:    5       Maximum Im/Re Ratio =    0.000001
      Wannier Function Num:    6       Maximum Im/Re Ratio =    0.000001
      Wannier Function Num:    7       Maximum Im/Re Ratio =    0.000001
      Wannier Function Num:    8       Maximum Im/Re Ratio =    0.000001
  
 Time for plotting             14.973 (sec)
 Total Execution Time          15.219 (sec)

 *===========================================================================*
 |                             TIMING INFORMATION                            |
 *===========================================================================*
 |    Tag                                                Ncalls      Time (s)|
 |---------------------------------------------------------------------------|
 |kmesh: get                                        :         1         0.032|
 |overlap: allocate                                 :         1         0.000|
 |overlap: read                                     :         1         0.061|
 |dis: main                                         :         1         0.048|
 |wann: main                                        :         1         0.093|
 |plot: main                                        :         1        14.973|
 *---------------------------------------------------------------------------*
 
 All done: wannier90 exiting
